# vtk DataFile Version 3.0
thePoints
ASCII

DATASET POLYDATA
POINTS 5 float
-1.24441800E+00 2.39447658E-01 0.00000000E+00
-1.19402100E+00 8.43486377E-02 0.00000000E+00
-1.24360806E+00 -5.02952608E-02 0.00000000E+00
-1.14450482E+00 2.5E-01 0.00000000E+00
-1.14380269E+00 2.6E-02 0.00000000E+00

VERTICES 5 10
1 0
1 1
1 2
1 3
1 4

POINT_DATA 5
SCALARS myParticles float
LOOKUP_TABLE T1
1 2 3 4 5 
