# vtk DataFile Version 3.0
theVelo
ASCII

DATASET UNSTRUCTURED_GRID
POINTS     7182 float
-1.35414584E+00 2.07675930E-02 0.00000000E+00
-1.30804265E+00 2.35532950E-01 0.00000000E+00
-1.23963608E+00 2.49213669E-01 0.00000000E+00
-1.38958333E+00 -9.16666667E-02 0.00000000E+00
-1.11443376E+00 7.50000000E-02 0.00000000E+00
-1.13431237E+00 2.65327152E-01 0.00000000E+00
-1.10721688E+00 6.25000000E-02 0.00000000E+00
-1.37726779E+00 -4.00039031E-02 0.00000000E+00
-1.31198655E+00 -6.32798122E-02 0.00000000E+00
-1.23750000E+00 -9.27831216E-02 0.00000000E+00
-1.10569177E+00 2.85974894E-01 0.00000000E+00
-1.11402511E+00 2.94308227E-01 0.00000000E+00
-1.10776860E+00 2.37998852E-01 0.00000000E+00
-1.29726852E+00 2.85564363E-01 0.00000000E+00
-1.28685185E+00 2.93897696E-01 0.00000000E+00
-1.30390987E+00 2.21068001E-01 0.00000000E+00
-1.21250000E+00 2.92783122E-01 0.00000000E+00
-1.29186631E+00 2.71465856E-01 0.00000000E+00
-1.12930757E+00 1.74916456E-01 0.00000000E+00
-1.33349431E+00 1.35717328E-01 0.00000000E+00
-1.32147725E+00 9.28693128E-02 0.00000000E+00
-1.34215166E+00 -2.24283226E-02 0.00000000E+00
-1.25032488E+00 -8.52935542E-02 0.00000000E+00
-1.37804882E+00 -8.26398269E-02 0.00000000E+00
-1.32023656E+00 -2.55644706E-03 0.00000000E+00
-1.30321019E+00 7.50212974E-02 0.00000000E+00
-1.32488587E+00 -8.53828170E-02 0.00000000E+00
-1.36460002E+00 1.03831616E-02 0.00000000E+00
-1.10721688E+00 1.12500000E-01 0.00000000E+00
-1.21250000E+00 -9.27831216E-02 0.00000000E+00
-1.22500000E+00 -8.55662433E-02 0.00000000E+00
-1.16081043E+00 -4.90365342E-02 0.00000000E+00
-1.12951481E+00 -2.27957880E-04 0.00000000E+00
-1.16173009E+00 -9.24081165E-02 0.00000000E+00
-1.14936840E+00 -8.58680882E-02 0.00000000E+00
-1.10721688E+00 1.25000000E-02 0.00000000E+00
-1.13673169E+00 1.22720421E-02 0.00000000E+00
-1.20000000E+00 -8.55662433E-02 0.00000000E+00
-1.36697248E+00 -2.97172078E-02 0.00000000E+00
-1.11443376E+00 2.50000000E-02 0.00000000E+00
-1.25056988E+00 -7.07692161E-02 0.00000000E+00
-1.33974431E+00 1.10717328E-01 0.00000000E+00
-1.30084779E+00 2.60901493E-01 0.00000000E+00
-1.10721688E+00 1.62500000E-01 0.00000000E+00
-1.31461721E+00 2.10535051E-01 0.00000000E+00
-1.19975821E+00 2.85523463E-01 0.00000000E+00
-1.18725821E+00 2.92740341E-01 0.00000000E+00
-1.27802818E+00 2.26213639E-01 0.00000000E+00
-1.11524791E+00 2.25633388E-01 0.00000000E+00
-1.10747931E+00 2.12634536E-01 0.00000000E+00
-1.31238587E+00 -9.25996953E-02 0.00000000E+00
-1.36346548E+00 -9.09731602E-02 0.00000000E+00
-1.11385934E+00 -9.45353682E-02 0.00000000E+00
-1.10552601E+00 -8.62020349E-02 0.00000000E+00
-1.28760649E+00 -9.26627041E-02 0.00000000E+00
-1.29999236E+00 -8.52623994E-02 0.00000000E+00
-1.11223180E+00 2.73336585E-01 0.00000000E+00
-1.10654003E+00 2.62361691E-01 0.00000000E+00
-1.10721688E+00 3.75000000E-02 0.00000000E+00
-1.12941515E+00 -5.19800694E-02 0.00000000E+00
-1.32948863E+00 1.21434656E-01 0.00000000E+00
-1.11443376E+00 5.00000000E-02 0.00000000E+00
-1.15978403E+00 2.62797433E-01 0.00000000E+00
-1.12986291E+00 2.00173830E-01 0.00000000E+00
-1.22568139E+00 2.85286805E-01 0.00000000E+00
-1.27760785E+00 2.72394411E-01 0.00000000E+00
-1.11443376E+00 2.71773345E-17 0.00000000E+00
-1.10721688E+00 -1.25000000E-02 0.00000000E+00
-1.11478589E+00 -2.55308979E-02 0.00000000E+00
-1.10756901E+00 -3.80308979E-02 0.00000000E+00
-1.24000347E+00 2.63180382E-01 0.00000000E+00
-1.29639044E+00 2.46434443E-01 0.00000000E+00
-1.31061153E+00 1.96252379E-01 0.00000000E+00
-1.32724431E+00 1.60717328E-01 0.00000000E+00
-1.34804013E+00 4.61017596E-02 0.00000000E+00
-1.32435100E+00 -7.08023813E-02 0.00000000E+00
-1.38221548E+00 -6.59731602E-02 0.00000000E+00
-1.37198328E+00 -5.59770634E-02 0.00000000E+00
-1.32323863E+00 1.46434656E-01 0.00000000E+00
-1.34599431E+00 8.57173282E-02 0.00000000E+00
-1.13699753E+00 1.87447458E-01 0.00000000E+00
-1.11443376E+00 1.25000000E-01 0.00000000E+00
-1.13608439E+00 6.25000000E-02 0.00000000E+00
-1.35829582E+00 3.53844314E-02 0.00000000E+00
-1.32370419E+00 5.33552990E-02 0.00000000E+00
-1.10721688E+00 8.75000000E-02 0.00000000E+00
-1.23774500E+00 -6.38250268E-02 0.00000000E+00
-1.12886751E+00 2.50000000E-02 0.00000000E+00
-1.11469365E+00 1.75008292E-01 0.00000000E+00
-1.11430863E+00 2.50360543E-01 0.00000000E+00
-1.26282488E+00 2.92595221E-01 0.00000000E+00
-1.27467673E+00 2.86492918E-01 0.00000000E+00
-1.37095468E+00 -1.47133047E-02 0.00000000E+00
-1.36055470E+00 -4.33014313E-03 0.00000000E+00
-1.26282488E+00 -9.25104326E-02 0.00000000E+00
-1.27543137E+00 -8.51731367E-02 0.00000000E+00
-1.15937177E+00 2.25199120E-01 0.00000000E+00
-1.12468643E+00 2.74984536E-01 0.00000000E+00
-1.13745463E+00 2.93314618E-01 0.00000000E+00
-1.12647974E+00 2.87622845E-01 0.00000000E+00
-1.10721688E+00 1.37500000E-01 0.00000000E+00
-1.11443376E+00 1.50000000E-01 0.00000000E+00
-1.13763831E+00 -9.34599717E-02 0.00000000E+00
-1.12649765E+00 -8.79953400E-02 0.00000000E+00
-1.32099431E+00 1.85717328E-01 0.00000000E+00
-1.31698863E+00 1.71434656E-01 0.00000000E+00
-1.33750000E+00 -9.27831216E-02 0.00000000E+00
-1.35096548E+00 -8.37562819E-02 0.00000000E+00
-1.11424720E+00 -5.06574694E-02 0.00000000E+00
-1.12484251E+00 -7.56219115E-02 0.00000000E+00
-1.17339120E+00 2.70886930E-01 0.00000000E+00
-1.25277540E+00 2.42086902E-01 0.00000000E+00
-1.26357915E+00 2.20842871E-01 0.00000000E+00
-1.11443376E+00 1.00000000E-01 0.00000000E+00
-1.19975821E+00 2.71089706E-01 0.00000000E+00
-1.15132405E+00 1.25333536E-02 0.00000000E+00
-1.17406866E+00 2.85247755E-01 0.00000000E+00
-1.13008179E+00 2.25833768E-01 0.00000000E+00
-1.12886751E+00 7.50000000E-02 0.00000000E+00
-1.33573863E+00 9.64346564E-02 0.00000000E+00
-1.15828227E+00 1.50062393E-01 0.00000000E+00
-1.18652422E+00 2.49380967E-01 0.00000000E+00
-1.10747677E+00 1.87508292E-01 0.00000000E+00
-1.11495608E+00 2.00142828E-01 0.00000000E+00
-1.18750000E+00 -9.27831216E-02 0.00000000E+00
-1.17423009E+00 -8.51912381E-02 0.00000000E+00
-1.21250000E+00 -6.39156082E-02 0.00000000E+00
-1.33376138E+00 4.23050740E-02 0.00000000E+00
-1.35224431E+00 6.07173282E-02 0.00000000E+00
-1.34198863E+00 7.14346564E-02 0.00000000E+00
-1.16181044E+00 2.92507414E-01 0.00000000E+00
-1.14926507E+00 2.85822031E-01 0.00000000E+00
-1.13698162E+00 -1.29641518E-02 0.00000000E+00
-1.17366540E+00 -7.07790111E-02 0.00000000E+00
-1.23818139E+00 2.92503683E-01 0.00000000E+00
-1.25100627E+00 2.85098904E-01 0.00000000E+00
-1.12886751E+00 1.25000000E-01 0.00000000E+00
-1.13626456E+00 1.62408164E-01 0.00000000E+00
-1.35788509E+00 -5.85163910E-02 0.00000000E+00
-1.33536694E+00 -6.40753470E-02 0.00000000E+00
-1.10667819E+00 -6.26265715E-02 0.00000000E+00
-1.11220420E+00 -7.38286064E-02 0.00000000E+00
-1.26770417E+00 1.83580589E-01 0.00000000E+00
-1.31122156E+00 1.03586641E-01 0.00000000E+00
-1.26696655E+00 2.63639371E-01 0.00000000E+00
-1.25221681E+00 2.70241560E-01 0.00000000E+00
-1.22566195E+00 2.42771894E-01 0.00000000E+00
-1.28931121E+00 2.16674748E-01 0.00000000E+00
-1.13722002E+00 2.12865918E-01 0.00000000E+00
-1.15154804E+00 2.38789151E-01 0.00000000E+00
-1.29071019E+00 1.25021297E-01 0.00000000E+00
-1.20000000E+00 -7.11324865E-02 0.00000000E+00
-1.27162811E+00 1.97489529E-01 0.00000000E+00
-1.30897725E+00 1.42869313E-01 0.00000000E+00
-1.29630809E+00 1.92315086E-01 0.00000000E+00
-1.28571512E+00 2.02204505E-01 0.00000000E+00
-1.12886751E+00 1.50000000E-01 0.00000000E+00
-1.13608439E+00 1.37500000E-01 0.00000000E+00
-1.18693531E+00 -6.39371379E-02 0.00000000E+00
-1.31747156E+00 7.85866410E-02 0.00000000E+00
-1.29872156E+00 1.53586641E-01 0.00000000E+00
-1.13608439E+00 1.12500000E-01 0.00000000E+00
-1.31552153E+00 2.34868017E-02 0.00000000E+00
-1.34601306E+00 -8.47981739E-03 0.00000000E+00
-1.12886751E+00 5.00000000E-02 0.00000000E+00
-1.13608439E+00 3.75000000E-02 0.00000000E+00
-1.18658076E+00 2.63945760E-01 0.00000000E+00
-1.14791612E+00 2.70472875E-01 0.00000000E+00
-1.26371051E+00 -6.31050696E-02 0.00000000E+00
-1.30012791E+00 -7.05229519E-02 0.00000000E+00
-1.30272725E+00 1.67869313E-01 0.00000000E+00
-1.29242950E+00 1.78214691E-01 0.00000000E+00
-1.29938126E+00 6.04256157E-02 0.00000000E+00
-1.32937734E+00 2.73055614E-02 0.00000000E+00
-1.28097462E+00 2.41508386E-01 0.00000000E+00
-1.26789252E+00 2.49451425E-01 0.00000000E+00
-1.33950611E+00 1.64854085E-02 0.00000000E+00
-1.33541864E+00 1.95130289E-03 0.00000000E+00
-1.13448445E+00 -6.57424766E-02 0.00000000E+00
-1.22500000E+00 -7.11324865E-02 0.00000000E+00
-1.14786968E+00 -7.05240216E-02 0.00000000E+00
-1.15966668E+00 -6.26518229E-02 0.00000000E+00
-1.22629292E+00 2.70820848E-01 0.00000000E+00
-1.21311153E+00 2.63883408E-01 0.00000000E+00
-1.12962634E+00 2.51678053E-01 0.00000000E+00
-1.13792019E+00 2.39516742E-01 0.00000000E+00
-1.28015648E+00 1.35575201E-01 0.00000000E+00
-1.30961957E+00 4.94769455E-02 0.00000000E+00
-1.26077517E+00 2.06589004E-01 0.00000000E+00
-1.32772725E+00 6.78693128E-02 0.00000000E+00
-1.12886751E+00 1.00000000E-01 0.00000000E+00
-1.13608439E+00 8.75000000E-02 0.00000000E+00
-1.12946958E+00 -2.57670918E-02 0.00000000E+00
-1.13742066E+00 -3.95896919E-02 0.00000000E+00
-1.31522725E+00 1.17869313E-01 0.00000000E+00
-1.30497156E+00 1.28586641E-01 0.00000000E+00
-1.15051815E+00 6.25000000E-02 0.00000000E+00
-1.18399506E+00 -2.11478721E-02 0.00000000E+00
-1.25115084E+00 -4.20442709E-02 0.00000000E+00
-1.15061271E+00 3.75890025E-02 0.00000000E+00
-1.35271110E+00 -3.32825514E-02 0.00000000E+00
-1.34936729E+00 -6.96289428E-02 0.00000000E+00
-1.30193615E+00 -4.04653509E-02 0.00000000E+00
-1.31282844E+00 -4.83430495E-02 0.00000000E+00
-1.21284795E+00 2.49801168E-01 0.00000000E+00
-1.19943809E+00 2.42442673E-01 0.00000000E+00
-1.27607200E+00 -7.02921118E-02 0.00000000E+00
-1.28838266E+00 -6.30422317E-02 0.00000000E+00
-1.15980162E+00 -3.45576971E-04 0.00000000E+00
-1.23791275E+00 -4.93155018E-02 0.00000000E+00
-1.33568890E+00 -4.98575690E-02 0.00000000E+00
-1.34890823E+00 -4.61085744E-02 0.00000000E+00
-1.28139727E+00 4.25258468E-02 0.00000000E+00
[...]
POINT_DATA     7182
VECTORS myVelocity float
1.03255579E+00   -7.21610798E-02   0.00000000E+00
9.74524208E-01   -1.62807031E-01   0.00000000E+00
9.21408994E-01   -5.34655699E-02   0.00000000E+00
1.02577317E+00   1.41374035E-03   0.00000000E+00
9.85852819E-01   -1.51909141E-01   0.00000000E+00
8.61830925E-01   7.42042913E-02   0.00000000E+00
9.89705594E-01   -1.72920427E-01   0.00000000E+00
1.03919808E+00   -1.85666383E-02   0.00000000E+00
1.06767540E+00   -2.37021563E-02   0.00000000E+00
1.11894295E+00   -1.92925754E-02   0.00000000E+00
8.05486946E-01   2.83934078E-01   0.00000000E+00
8.52679498E-01   2.24421085E-01   0.00000000E+00
8.17244631E-01   9.75226106E-02   0.00000000E+00
9.37176534E-01   -7.76970206E-02   0.00000000E+00
9.10807163E-01   -5.29888276E-02   0.00000000E+00
9.80077153E-01   -1.63761443E-01   0.00000000E+00
8.10368003E-01   -8.78791257E-03   0.00000000E+00
9.54231127E-01   -9.15753562E-02   0.00000000E+00
9.05729379E-01   -2.43254744E-02   0.00000000E+00
9.98389526E-01   -1.64493491E-01   0.00000000E+00
1.02174763E+00   -1.30892175E-01   0.00000000E+00
1.05160341E+00   -4.17439878E-02   0.00000000E+00
1.10930302E+00   -2.04924576E-02   0.00000000E+00
1.03116018E+00   -2.17073105E-03   0.00000000E+00
1.06297708E+00   -6.29534377E-02   0.00000000E+00
1.04200265E+00   -1.15614962E-01   0.00000000E+00
1.04916843E+00   -1.06271972E-02   0.00000000E+00
1.03217381E+00   -6.05772939E-02   0.00000000E+00
9.37073708E-01   -1.03888535E-01   0.00000000E+00
1.15539370E+00   -2.64974400E-02   0.00000000E+00
1.14013452E+00   -2.68960332E-02   0.00000000E+00
1.22512048E+00   -1.64130955E-01   0.00000000E+00
1.10614214E+00   -2.31747075E-01   0.00000000E+00
1.29131403E+00   -6.97806891E-02   0.00000000E+00
1.34536228E+00   -1.12625193E-01   0.00000000E+00
1.05221395E+00   -2.48854309E-01   0.00000000E+00
1.09220772E+00   -2.05337294E-01   0.00000000E+00
1.18253392E+00   -3.87442209E-02   0.00000000E+00
1.03982418E+00   -2.85216485E-02   0.00000000E+00
1.04603676E+00   -2.19718913E-01   0.00000000E+00
1.11605970E+00   -3.12711650E-02   0.00000000E+00
1.00504506E+00   -1.48873723E-01   0.00000000E+00
9.62874117E-01   -1.23621234E-01   0.00000000E+00
8.87023172E-01   -3.31076231E-02   0.00000000E+00
9.80969836E-01   -1.78393507E-01   0.00000000E+00
8.23223618E-01   -5.62509273E-03   0.00000000E+00
8.02701717E-01   3.24254330E-04   0.00000000E+00
9.72211214E-01   -1.22324826E-01   0.00000000E+00
8.41214560E-01   6.19400982E-02   0.00000000E+00
8.38365380E-01   4.70334909E-02   0.00000000E+00
1.05181532E+00   -9.88594428E-03   0.00000000E+00
1.02826041E+00   -3.94716596E-03   0.00000000E+00
1.52664970E+00   -5.36952984E-01   0.00000000E+00
1.39897169E+00   -6.81510083E-01   0.00000000E+00
1.06947219E+00   -1.22708934E-02   0.00000000E+00
1.06533704E+00   -1.34033970E-02   0.00000000E+00
8.55173618E-01   1.86638519E-01   0.00000000E+00
8.08374713E-01   1.74380425E-01   0.00000000E+00
1.01877681E+00   -2.09177512E-01   0.00000000E+00
1.25847621E+00   -2.87011090E-01   0.00000000E+00
1.00543643E+00   -1.53368194E-01   0.00000000E+00
1.01410171E+00   -1.85043140E-01   0.00000000E+00
8.61122166E-01   2.34168262E-02   0.00000000E+00
8.83818163E-01   9.04545529E-03   0.00000000E+00
8.38730345E-01   -1.61624357E-02   0.00000000E+00
9.36465594E-01   -7.03213916E-02   0.00000000E+00
1.08510138E+00   -2.58022592E-01   0.00000000E+00
1.09449858E+00   -2.96062933E-01   0.00000000E+00
1.13996891E+00   -3.03142420E-01   0.00000000E+00
1.15626763E+00   -3.59651684E-01   0.00000000E+00
8.98799888E-01   -4.09059777E-02   0.00000000E+00
9.69688281E-01   -1.36814103E-01   0.00000000E+00
9.86820493E-01   -1.73525977E-01   0.00000000E+00
9.92227569E-01   -1.75680896E-01   0.00000000E+00
1.02624583E+00   -9.53407929E-02   0.00000000E+00
1.05717297E+00   -1.68344472E-02   0.00000000E+00
1.03756631E+00   -5.12113061E-03   0.00000000E+00
1.03946686E+00   -1.21243768E-02   0.00000000E+00
9.98918910E-01   -1.65778602E-01   0.00000000E+00
1.01202199E+00   -1.29761824E-01   0.00000000E+00
9.04096187E-01   -1.30874202E-02   0.00000000E+00
9.34300124E-01   -8.63989720E-02   0.00000000E+00
1.02536743E+00   -1.54702050E-01   0.00000000E+00
1.02612941E+00   -8.44857843E-02   0.00000000E+00
1.03897781E+00   -1.02433174E-01   0.00000000E+00
9.62815804E-01   -1.38242978E-01   0.00000000E+00
1.13101110E+00   -4.36762767E-02   0.00000000E+00
1.06498977E+00   -2.02477416E-01   0.00000000E+00
8.85590811E-01   -1.74913871E-02   0.00000000E+00
8.30477956E-01   1.11926165E-01   0.00000000E+00
8.69670302E-01   -3.04174812E-02   0.00000000E+00
9.08905134E-01   -4.59109167E-02   0.00000000E+00
1.03671957E+00   -3.79278161E-02   0.00000000E+00
1.03722227E+00   -4.93512070E-02   0.00000000E+00
1.09151096E+00   -1.51256163E-02   0.00000000E+00
1.08498184E+00   -1.64669248E-02   0.00000000E+00
8.97063935E-01   6.95009164E-03   0.00000000E+00
8.82999337E-01   1.18398149E-01   0.00000000E+00
8.65098637E-01   5.40535472E-02   0.00000000E+00
9.05997828E-01   1.06063269E-01   0.00000000E+00
9.11897237E-01   -6.90559657E-02   0.00000000E+00
9.09677770E-01   -5.26540558E-02   0.00000000E+00
1.47386667E+00   -1.51584453E-01   0.00000000E+00
1.55966140E+00   -2.70283482E-01   0.00000000E+00
9.86459757E-01   -1.81103510E-01   0.00000000E+00
9.92751484E-01   -1.73083190E-01   0.00000000E+00
1.03752596E+00   -7.44372210E-03   0.00000000E+00
1.03715542E+00   -7.47296817E-03   0.00000000E+00
1.22909926E+00   -3.62901684E-01   0.00000000E+00
1.44405801E+00   -3.17399713E-01   0.00000000E+00
8.50860741E-01   8.17322996E-03   0.00000000E+00
9.41308188E-01   -7.41989584E-02   0.00000000E+00
9.67845617E-01   -1.03837705E-01   0.00000000E+00
9.59552472E-01   -1.19295059E-01   0.00000000E+00
8.55415725E-01   -9.74808474E-03   0.00000000E+00
1.10383574E+00   -1.84085121E-01   0.00000000E+00
8.22258394E-01   7.60594932E-03   0.00000000E+00
8.64548903E-01   4.47007713E-02   0.00000000E+00
1.00354057E+00   -1.45013831E-01   0.00000000E+00
1.01227740E+00   -1.36921984E-01   0.00000000E+00
9.60928075E-01   -6.52950467E-02   0.00000000E+00
8.86482296E-01   -7.77716675E-03   0.00000000E+00
8.62362467E-01   4.97235084E-03   0.00000000E+00
8.62223012E-01   2.02711390E-02   0.00000000E+00
1.20750066E+00   -4.04768139E-02   0.00000000E+00
1.24413102E+00   -6.30385253E-02   0.00000000E+00
1.16252464E+00   -5.80827416E-02   0.00000000E+00
1.03627225E+00   -9.35248526E-02   0.00000000E+00
1.01912272E+00   -1.07978153E-01   0.00000000E+00
1.01927603E+00   -1.17283688E-01   0.00000000E+00
8.12789040E-01   1.50336817E-02   0.00000000E+00
8.39058133E-01   3.24149305E-02   0.00000000E+00
1.13892570E+00   -2.28542294E-01   0.00000000E+00
1.23810426E+00   -8.90278290E-02   0.00000000E+00
8.32006164E-01   -1.77794275E-02   0.00000000E+00
8.67026082E-01   -2.83996611E-02   0.00000000E+00
9.52562804E-01   -8.65181977E-02   0.00000000E+00
9.26131379E-01   -4.33292868E-02   0.00000000E+00
1.04305384E+00   -1.55263466E-02   0.00000000E+00
1.05323984E+00   -1.85815072E-02   0.00000000E+00
1.25958625E+00   -4.76229843E-01   0.00000000E+00
1.40616566E+00   -4.75383485E-01   0.00000000E+00
9.94313817E-01   -1.21087172E-01   0.00000000E+00
1.02326741E+00   -1.34248620E-01   0.00000000E+00
9.30787781E-01   -6.93107316E-02   0.00000000E+00
9.00583102E-01   -4.28824366E-02   0.00000000E+00
9.18534286E-01   -4.57893714E-02   0.00000000E+00
9.81674577E-01   -1.43969704E-01   0.00000000E+00
8.83294874E-01   1.85684804E-02   0.00000000E+00
8.80880818E-01   2.68045499E-02   0.00000000E+00
1.02247225E+00   -1.34286195E-01   0.00000000E+00
1.18435340E+00   -5.67245285E-02   0.00000000E+00
9.87090211E-01   -1.22703873E-01   0.00000000E+00
1.00662850E+00   -1.54385955E-01   0.00000000E+00
9.91234786E-01   -1.56189509E-01   0.00000000E+00
9.86981553E-01   -1.41265301E-01   0.00000000E+00
9.28647409E-01   -5.60416322E-02   0.00000000E+00
9.49129556E-01   -7.25627677E-02   0.00000000E+00
1.20329338E+00   -8.44464251E-02   0.00000000E+00
1.03132088E+00   -1.20002976E-01   0.00000000E+00
1.00614993E+00   -1.49876538E-01   0.00000000E+00
9.73157250E-01   -1.00799073E-01   0.00000000E+00
1.05774354E+00   -8.23950798E-02   0.00000000E+00
1.04576430E+00   -5.06078066E-02   0.00000000E+00
1.03207579E+00   -1.73720073E-01   0.00000000E+00
1.05570389E+00   -1.80612947E-01   0.00000000E+00
8.63496172E-01   -3.23145703E-03   0.00000000E+00
8.58788912E-01   4.02307943E-02   0.00000000E+00
1.10595704E+00   -3.48272918E-02   0.00000000E+00
1.07319258E+00   -2.10123591E-02   0.00000000E+00
9.98964248E-01   -1.58671478E-01   0.00000000E+00
9.97086815E-01   -1.49355331E-01   0.00000000E+00
1.05136263E+00   -1.07102320E-01   0.00000000E+00
1.04589068E+00   -8.26105034E-02   0.00000000E+00
9.65777864E-01   -1.16123637E-01   0.00000000E+00
9.48903761E-01   -8.80676613E-02   0.00000000E+00
1.04229064E+00   -7.21017393E-02   0.00000000E+00
1.05045068E+00   -6.17745529E-02   0.00000000E+00
1.32685555E+00   -2.42355477E-01   0.00000000E+00
1.14544598E+00   -4.05010272E-02   0.00000000E+00
1.31395453E+00   -1.56279986E-01   0.00000000E+00
1.25387953E+00   -1.39424785E-01   0.00000000E+00
8.71967049E-01   -2.48062104E-02   0.00000000E+00
8.75796815E-01   -2.15546793E-02   0.00000000E+00
8.56108450E-01   7.99904010E-02   0.00000000E+00
8.66209468E-01   4.83475199E-02   0.00000000E+00
1.01979254E+00   -1.30704361E-01   0.00000000E+00
1.05055398E+00   -1.00368859E-01   0.00000000E+00
9.77417638E-01   -1.06921155E-01   0.00000000E+00
1.02910469E+00   -1.13554649E-01   0.00000000E+00
9.77373334E-01   -1.16086371E-01   0.00000000E+00
9.98324419E-01   -1.28138981E-01   0.00000000E+00
1.16335526E+00   -2.61897299E-01   0.00000000E+00
1.20903093E+00   -2.42515968E-01   0.00000000E+00
1.01418855E+00   -1.44772900E-01   0.00000000E+00
1.01485124E+00   -1.44505550E-01   0.00000000E+00
1.03920279E+00   -1.46018095E-01   0.00000000E+00
1.15702654E+00   -1.36559609E-01   0.00000000E+00
1.11841875E+00   -5.87838362E-02   0.00000000E+00
1.06879503E+00   -1.66524543E-01   0.00000000E+00
1.04616600E+00   -3.10812207E-02   0.00000000E+00
1.04486476E+00   -1.24035033E-02   0.00000000E+00
1.07962945E+00   -4.18353403E-02   0.00000000E+00
1.07082525E+00   -3.34770246E-02   0.00000000E+00
8.99754945E-01   -2.99782481E-02   0.00000000E+00
9.02359980E-01   -2.27173633E-02   0.00000000E+00
1.09267124E+00   -2.53898930E-02   0.00000000E+00
1.08501713E+00   -2.88028237E-02   0.00000000E+00
1.12797994E+00   -1.76951057E-01   0.00000000E+00
1.13135344E+00   -5.86424674E-02   0.00000000E+00
1.05625166E+00   -2.62654378E-02   0.00000000E+00
1.04912687E+00   -2.45281803E-02   0.00000000E+00
1.06953790E+00   -9.89367671E-02   0.00000000E+00
1.15895611E+00   -7.66420882E-02   0.00000000E+00
1.03179938E+00   -1.31883982E-01   0.00000000E+00
9.83256297E-01   -8.84284749E-02   0.00000000E+00
1.05970129E+00   -9.12451139E-02   0.00000000E+00
1.05900228E+00   -1.50947713E-01   0.00000000E+00
1.01169295E+00   -1.36414298E-01   0.00000000E+00
8.89469410E-01   7.81898563E-04   0.00000000E+00
9.40054364E-01   -4.13645661E-02   0.00000000E+00
9.70086251E-01   -6.50198973E-02   0.00000000E+00
1.19104588E+00   -1.08038630E-01   0.00000000E+00
1.08970892E+00   -1.67136838E-01   0.00000000E+00
9.35974100E-01   -5.45266060E-02   0.00000000E+00
9.21760671E-01   -2.35934799E-02   0.00000000E+00
9.64749721E-01   -7.52831502E-02   0.00000000E+00
1.00687011E+00   -1.10830372E-01   0.00000000E+00
1.03253861E+00   -1.27111868E-01   0.00000000E+00
1.03108077E+00   -1.27416794E-01   0.00000000E+00
8.76744710E-01   2.05712046E-02   0.00000000E+00
1.01274787E+00   -1.23693087E-01   0.00000000E+00
1.04170061E+00   -1.19367410E-01   0.00000000E+00
1.01155056E+00   -9.98853764E-02   0.00000000E+00
1.08830415E+00   -3.98509366E-02   0.00000000E+00
1.10797376E+00   -4.73737724E-02   0.00000000E+00
9.88230578E-01   -9.99889682E-02   0.00000000E+00
1.01807923E+00   -1.09003348E-01   0.00000000E+00
1.16853736E+00   -9.88760802E-02   0.00000000E+00
1.12954258E+00   -1.56092207E-01   0.00000000E+00
1.03695680E+00   -1.20840538E-01   0.00000000E+00
1.14221979E+00   -7.40265645E-02   0.00000000E+00
1.06666990E+00   -7.30652005E-02   0.00000000E+00
1.11591361E+00   -7.01794882E-02   0.00000000E+00
1.15676367E+00   -1.12815288E-01   0.00000000E+00
1.14913548E+00   -1.94998449E-01   0.00000000E+00
9.04796447E-01   -6.27144720E-03   0.00000000E+00
9.42791880E-01   -4.98623188E-02   0.00000000E+00
9.53816694E-01   -8.37678131E-02   0.00000000E+00
9.74006777E-01   -7.09151781E-02   0.00000000E+00
1.09797498E+00   -4.89844865E-02   0.00000000E+00
1.06333464E+00   -3.42932460E-02   0.00000000E+00
1.06164727E+00   -4.32187557E-02   0.00000000E+00
1.06833456E+00   -5.32614593E-02   0.00000000E+00
1.17446659E+00   -1.82871424E-01   0.00000000E+00
1.20993247E+00   -1.97033938E-01   0.00000000E+00
1.05879047E+00   -1.30349490E-01   0.00000000E+00
1.04218449E+00   -1.26271059E-01   0.00000000E+00
1.03231209E+00   -1.18283286E-01   0.00000000E+00
9.34998792E-01   -4.69033730E-02   0.00000000E+00
1.19709770E+00   -1.37326203E-01   0.00000000E+00
1.17485206E+00   -1.51907974E-01   0.00000000E+00
1.08460682E+00   -7.05604276E-02   0.00000000E+00
1.08642415E+00   -6.11763944E-02   0.00000000E+00
1.14121497E+00   -1.03350843E-01   0.00000000E+00
1.09675009E+00   -1.51607735E-01   0.00000000E+00
9.01138557E-01   2.36077069E-03   0.00000000E+00
9.19326329E-01   -1.76683141E-02   0.00000000E+00
1.00005719E+00   -1.32814422E-01   0.00000000E+00
1.00747764E+00   -1.28668329E-01   0.00000000E+00
1.03524494E+00   -1.12908351E-01   0.00000000E+00
9.32904639E-01   -3.24677060E-02   0.00000000E+00
9.54270033E-01   -5.09020132E-02   0.00000000E+00
1.00108780E+00   -1.06477486E-01   0.00000000E+00
1.06050078E+00   -1.05502513E-01   0.00000000E+00
1.13625235E+00   -8.67961115E-02   0.00000000E+00
9.20164013E-01   -3.09052536E-02   0.00000000E+00
9.19613365E-01   -2.30184028E-02   0.00000000E+00
1.03434210E+00   -1.16253140E-01   0.00000000E+00
1.14065781E+00   -1.41917034E-01   0.00000000E+00
1.04921237E+00   -1.15470177E-01   0.00000000E+00
1.11243955E+00   -1.47697167E-01   0.00000000E+00
9.62849999E-01   -7.86255472E-02   0.00000000E+00
9.51357314E-01   -7.17716592E-02   0.00000000E+00
1.12825596E+00   -1.27103835E-01   0.00000000E+00
1.05865256E+00   -1.10117922E-01   0.00000000E+00
1.12288086E+00   -8.28076663E-02   0.00000000E+00
1.04394313E+00   -1.12444539E-01   0.00000000E+00
1.10439193E+00   -6.92359571E-02   0.00000000E+00
1.06954706E+00   -9.14128290E-02   0.00000000E+00
1.02701124E+00   -1.04402364E-01   0.00000000E+00
1.04592640E+00   -1.16638379E-01   0.00000000E+00
1.07882613E+00   -5.26942653E-02   0.00000000E+00
1.09689830E+00   -5.94510192E-02   0.00000000E+00
1.04209384E+00   -1.13749843E-01   0.00000000E+00
1.03742275E+00   -1.08139695E-01   0.00000000E+00
1.00917449E+00   -1.16531477E-01   0.00000000E+00
1.02375634E+00   -1.21277708E-01   0.00000000E+00
1.01735360E+00   -1.14850792E-01   0.00000000E+00
9.74881399E-01   -9.37051516E-02   0.00000000E+00
9.33795980E-01   -3.05735975E-02   0.00000000E+00
9.50445991E-01   -4.60362104E-02   0.00000000E+00
9.93647578E-01   -1.06887088E-01   0.00000000E+00
9.83887732E-01   -9.52877852E-02   0.00000000E+00
1.06820486E+00   -1.40892031E-01   0.00000000E+00
1.08503877E+00   -1.40939757E-01   0.00000000E+00
1.07614704E+00   -7.51212963E-02   0.00000000E+00
1.07706645E+00   -8.46188907E-02   0.00000000E+00
1.01971270E+00   -1.00961433E-01   0.00000000E+00
9.98282199E-01   -9.53475332E-02   0.00000000E+00
1.01689293E+00   -9.84929812E-02   0.00000000E+00
1.01778501E+00   -1.06921097E-01   0.00000000E+00
9.95367162E-01   -9.01519068E-02   0.00000000E+00
9.89939287E-01   -8.26267135E-02   0.00000000E+00
1.09122425E+00   -7.79952010E-02   0.00000000E+00
1.10502602E+00   -8.82487072E-02   0.00000000E+00
1.03399311E+00   -1.07576108E-01   0.00000000E+00
9.99434026E-01   -8.70143874E-02   0.00000000E+00
1.10053522E+00   -7.83961057E-02   0.00000000E+00
1.08606366E+00   -8.58829251E-02   0.00000000E+00
1.10267144E+00   -1.26173422E-01   0.00000000E+00
1.12907600E+00   -1.12281965E-01   0.00000000E+00
1.07938207E+00   -1.08570293E-01   0.00000000E+00
1.08084159E+00   -1.18065151E-01   0.00000000E+00
1.09018304E+00   -1.15304425E-01   0.00000000E+00
1.11413560E+00   -1.32610147E-01   0.00000000E+00
1.05626912E+00   -1.17556896E-01   0.00000000E+00
1.09696232E+00   -9.57945961E-02   0.00000000E+00
1.06456195E+00   -1.09380916E-01   0.00000000E+00
1.08926407E+00   -1.30592465E-01   0.00000000E+00
9.76233886E-01   -7.08480920E-02   0.00000000E+00
9.51537999E-01   -5.63719747E-02   0.00000000E+00
1.08731092E+00   -9.38297188E-02   0.00000000E+00
1.10151187E+00   -1.17154104E-01   0.00000000E+00
1.04623032E+00   -1.11246596E-01   0.00000000E+00
1.02712061E+00   -1.07973078E-01   0.00000000E+00
1.07830455E+00   -1.00089622E-01   0.00000000E+00
1.07517682E+00   -1.05918363E-01   0.00000000E+00
1.06512336E+00   -1.24138625E-01   0.00000000E+00
1.07876304E+00   -1.24333873E-01   0.00000000E+00
1.00680031E+00   -9.74718284E-02   0.00000000E+00
1.01302404E+00   -9.56156376E-02   0.00000000E+00
9.77569824E-01   -8.16306661E-02   0.00000000E+00
9.64005991E-01   -7.08490958E-02   0.00000000E+00
1.00601760E+00   -9.26144268E-02   0.00000000E+00
9.84524069E-01   -8.21000166E-02   0.00000000E+00
9.81957093E-01   -7.43529173E-02   0.00000000E+00
9.95372357E-01   -8.46358720E-02   0.00000000E+00
1.04997988E+00   -1.13617314E-01   0.00000000E+00
1.05917523E+00   -1.11712106E-01   0.00000000E+00
1.10692549E+00   -1.09328628E-01   0.00000000E+00
1.05544525E+00   -1.12599668E-01   0.00000000E+00
9.49994493E-01   -4.98231584E-02   0.00000000E+00
9.60539001E-01   -5.66492693E-02   0.00000000E+00
1.11584998E+00   -9.17167367E-02   0.00000000E+00
1.11708250E+00   -1.04636303E-01   0.00000000E+00
1.06116383E+00   -1.14929656E-01   0.00000000E+00
1.07209661E+00   -1.15242663E-01   0.00000000E+00
1.06235342E+00   -1.11892402E-01   0.00000000E+00
1.07194538E+00   -1.12213143E-01   0.00000000E+00
1.09762926E+00   -1.03954950E-01   0.00000000E+00
1.08887476E+00   -1.08839086E-01   0.00000000E+00
2.49867107E-03   1.56127160E-03   0.00000000E+00
1.43748925E-02   4.30352555E-03   0.00000000E+00
5.57915727E-02   4.18817097E-03   0.00000000E+00
6.61302237E-01   -2.18618069E-01   0.00000000E+00
6.22625544E-01   3.91418258E-01   0.00000000E+00
5.71063780E-01   -2.79640688E-01   0.00000000E+00
1.19310950E+00   -2.46636982E-01   0.00000000E+00
2.57594154E-01   -7.95479272E-02   0.00000000E+00
3.79172626E-02   4.63097459E-04   0.00000000E+00
2.30478740E-01   5.22880184E-01   0.00000000E+00
1.00333058E-01   5.30303620E-02   0.00000000E+00
8.73613578E-01   -3.48753046E-01   0.00000000E+00
6.04751264E-01   4.93894772E-01   0.00000000E+00
2.44851535E-01   1.78332859E-01   0.00000000E+00
5.41277977E-01   -1.44376936E-01   0.00000000E+00
5.38685382E-01   -2.82078138E-01   0.00000000E+00
2.08668701E-01   -4.80400303E-02   0.00000000E+00
3.58993185E-02   -2.53375615E-02   0.00000000E+00
7.89282611E-01   -4.45684500E-01   0.00000000E+00
1.32985250E+00   -2.38184889E-01   0.00000000E+00
9.16379506E-01   -1.06084051E-01   0.00000000E+00
1.18402539E+00   -6.72438467E-02   0.00000000E+00
7.45226657E-01   -3.30043643E-01   0.00000000E+00
1.11734452E+00   8.43780487E-01   0.00000000E+00
1.18331404E-01   -6.13430783E-01   0.00000000E+00
8.28575680E-01   -4.80934990E-01   0.00000000E+00
2.96835376E-01   -3.06507249E-01   0.00000000E+00
3.38670856E-02   4.23541240E-04   0.00000000E+00
8.70939938E-04   1.37026859E-03   0.00000000E+00
6.45464430E-01   -5.07099440E-01   0.00000000E+00
1.61154201E-01   1.84607407E-02   0.00000000E+00
4.89309408E-01   3.46487866E-01   0.00000000E+00
9.99531733E-01   -8.71262539E-02   0.00000000E+00
4.27554178E-01   3.15699329E-01   0.00000000E+00
1.21352417E+00   2.09570262E-02   0.00000000E+00
1.01087013E+00   -2.33857088E-01   0.00000000E+00
4.28776612E-01   2.73121233E-01   0.00000000E+00
7.47140152E-01   -4.71728917E-01   0.00000000E+00