# vtk DataFile Version 4.0
vtk output
ASCII
DATASET UNSTRUCTURED_GRID
POINTS 5817 float
1.0000000e+01 0.0000000e+00 0.0000000e+00 
9.8999996e+00 0.0000000e+00 0.0000000e+00 
1.0000000e+01 1.0000000e-01 0.0000000e+00 
9.8583298e+00 8.8835500e-02 0.0000000e+00 
9.8000002e+00 0.0000000e+00 0.0000000e+00 
1.0000000e+01 2.0000000e-01 0.0000000e+00 
9.8999996e+00 1.7320500e-01 0.0000000e+00 
9.7500000e+00 8.6602502e-02 0.0000000e+00 
9.8000002e+00 1.7320500e-01 0.0000000e+00 
1.0000000e+01 3.0000001e-01 0.0000000e+00 
9.6999998e+00 0.0000000e+00 0.0000000e+00 
9.8583298e+00 2.6650599e-01 0.0000000e+00 
9.6999998e+00 1.7320500e-01 0.0000000e+00 
9.6499996e+00 8.6602502e-02 0.0000000e+00 
9.7500000e+00 2.5980800e-01 0.0000000e+00 
9.9033298e+00 3.4808499e-01 0.0000000e+00 
1.0000000e+01 4.0000001e-01 0.0000000e+00 
9.6000004e+00 0.0000000e+00 0.0000000e+00 
9.8000002e+00 3.4641001e-01 0.0000000e+00 
9.6000004e+00 1.7320500e-01 0.0000000e+00 
9.6499996e+00 2.5980800e-01 0.0000000e+00 
9.8583298e+00 4.2751101e-01 0.0000000e+00 
9.5500002e+00 8.6602502e-02 0.0000000e+00 
9.6999998e+00 3.4641001e-01 0.0000000e+00 
1.0000000e+01 5.0000000e-01 0.0000000e+00 
9.5000000e+00 0.0000000e+00 0.0000000e+00 
9.7500000e+00 4.3301299e-01 0.0000000e+00 
9.5500002e+00 2.5980800e-01 0.0000000e+00 
9.6000004e+00 3.4641001e-01 0.0000000e+00 
9.5000000e+00 1.7320500e-01 0.0000000e+00 
9.8999996e+00 5.1961499e-01 0.0000000e+00 
9.4499998e+00 8.6602502e-02 0.0000000e+00 
9.6499996e+00 4.3301299e-01 0.0000000e+00 
9.8000002e+00 5.1961499e-01 0.0000000e+00 
1.0000000e+01 6.0000002e-01 0.0000000e+00 
9.3999996e+00 0.0000000e+00 0.0000000e+00 
9.6999998e+00 5.1961499e-01 0.0000000e+00 
9.4499998e+00 2.5980800e-01 0.0000000e+00 
9.5000000e+00 3.4641001e-01 0.0000000e+00 
9.8893099e+00 6.1410201e-01 0.0000000e+00 
9.3999996e+00 1.7320500e-01 0.0000000e+00 
9.5500002e+00 4.3301299e-01 0.0000000e+00 
9.3500004e+00 8.6602502e-02 0.0000000e+00 
9.6000004e+00 5.1961499e-01 0.0000000e+00 
9.7873602e+00 6.3313198e-01 0.0000000e+00 
9.3999996e+00 3.4641001e-01 0.0000000e+00 
9.3000002e+00 0.0000000e+00 0.0000000e+00 
1.0000000e+01 6.9999999e-01 0.0000000e+00 
9.3500004e+00 2.5980800e-01 0.0000000e+00 
9.4499998e+00 4.3301299e-01 0.0000000e+00 
9.6772203e+00 6.2931901e-01 0.0000000e+00 
9.3000002e+00 1.7320500e-01 0.0000000e+00 
9.8485203e+00 7.1224803e-01 0.0000000e+00 
9.5041599e+00 5.3742099e-01 0.0000000e+00 
9.2500000e+00 8.6602502e-02 0.0000000e+00 
9.5762100e+00 6.3882500e-01 0.0000000e+00 
9.7494297e+00 7.2565800e-01 0.0000000e+00 
9.3000002e+00 3.4641001e-01 0.0000000e+00 
9.3420296e+00 4.3454701e-01 0.0000000e+00 
9.2500000e+00 2.5980800e-01 0.0000000e+00 
9.9096899e+00 7.9136300e-01 0.0000000e+00 
1.0000000e+01 8.0000001e-01 0.0000000e+00 
9.1999998e+00 0.0000000e+00 0.0000000e+00 
9.6503296e+00 7.3906797e-01 0.0000000e+00 
9.1999998e+00 1.7320500e-01 0.0000000e+00 
9.3813105e+00 5.4442602e-01 0.0000000e+00 
9.8105898e+00 8.0477297e-01 0.0000000e+00 
9.4674196e+00 6.5563202e-01 0.0000000e+00 
9.1499996e+00 8.6602502e-02 0.0000000e+00 
9.7114897e+00 8.1818300e-01 0.0000000e+00 
9.1999998e+00 3.4641001e-01 0.0000000e+00 
9.5512304e+00 7.5247800e-01 0.0000000e+00 
9.2865801e+00 5.0924700e-01 0.0000000e+00 
9.2342796e+00 4.2777699e-01 0.0000000e+00 
9.1499996e+00 2.5980800e-01 0.0000000e+00 
9.8717499e+00 8.8388801e-01 0.0000000e+00 
1.0000000e+01 8.9999998e-01 0.0000000e+00 
9.1000004e+00 0.0000000e+00 0.0000000e+00 
9.1000004e+00 1.7320500e-01 0.0000000e+00 
9.6124001e+00 8.3159399e-01 0.0000000e+00 
9.7726603e+00 8.9729899e-01 0.0000000e+00 
9.3619204e+00 6.7122602e-01 0.0000000e+00 
9.2737198e+00 5.9348202e-01 0.0000000e+00 
9.4521399e+00 7.6588798e-01 0.0000000e+00 
9.2042999e+00 5.2308202e-01 0.0000000e+00 
9.0500002e+00 8.6602502e-02 0.0000000e+00 
9.9329100e+00 9.6300399e-01 0.0000000e+00 
9.6735601e+00 9.1070902e-01 0.0000000e+00 
9.1368198e+00 4.4975999e-01 0.0000000e+00 
9.5132999e+00 8.4500402e-01 0.0000000e+00 
9.0923996e+00 3.6564499e-01 0.0000000e+00 
9.0500002e+00 2.5980800e-01 0.0000000e+00 
9.8338203e+00 9.7641402e-01 0.0000000e+00 
1.0000000e+01 1.0000000e+00 0.0000000e+00 
9.0000000e+00 0.0000000e+00 0.0000000e+00 
9.3530397e+00 7.7929902e-01 0.0000000e+00 
9.0000000e+00 1.7320500e-01 0.0000000e+00 
9.5744600e+00 9.2411900e-01 0.0000000e+00 
9.2438698e+00 6.8863100e-01 0.0000000e+00 
9.7347202e+00 9.8982400e-01 0.0000000e+00 
9.1771202e+00 6.1455202e-01 0.0000000e+00 
9.4141998e+00 8.5841399e-01 0.0000000e+00 
9.1068001e+00 5.4364800e-01 0.0000000e+00 
9.9044905e+00 1.0417700e+00 0.0000000e+00 
8.9499998e+00 8.6602502e-02 0.0000000e+00 
9.6356201e+00 1.0032300e+00 0.0000000e+00 
9.0417004e+00 4.7562101e-01 0.0000000e+00 
9.4753599e+00 9.3752903e-01 0.0000000e+00 
8.9499998e+00 2.5980800e-01 0.0000000e+00 
8.9784098e+00 3.7431899e-01 0.0000000e+00 
9.7958803e+00 1.0689400e+00 0.0000000e+00 
1.0000000e+01 1.1000000e+00 0.0000000e+00 
8.8999996e+00 0.0000000e+00 0.0000000e+00 
9.2132702e+00 7.8782201e-01 0.0000000e+00 
9.1461802e+00 7.1470100e-01 0.0000000e+00 
8.8999996e+00 1.7320500e-01 0.0000000e+00 
9.5365295e+00 1.0166399e+00 0.0000000e+00 
9.0804300e+00 6.3953602e-01 0.0000000e+00 
9.6967897e+00 1.0823500e+00 0.0000000e+00 
9.2791595e+00 8.6298501e-01 0.0000000e+00 
9.3762703e+00 9.5093900e-01 0.0000000e+00 
9.0110798e+00 5.7062602e-01 0.0000000e+00 
9.8643503e+00 1.1422800e+00 0.0000000e+00 
8.8500004e+00 8.6602502e-02 0.0000000e+00 
8.8924799e+00 3.3931199e-01 0.0000000e+00 
8.9442501e+00 4.9722099e-01 0.0000000e+00 
9.5976896e+00 1.0957600e+00 0.0000000e+00 
9.4374304e+00 1.0300500e+00 0.0000000e+00 
8.8500004e+00 2.5980800e-01 0.0000000e+00 
9.7579498e+00 1.1614600e+00 0.0000000e+00 
9.1158600e+00 8.0676198e-01 0.0000000e+00 
8.8780699e+00 4.2282000e-01 0.0000000e+00 
1.0000000e+01 1.2000000e+00 0.0000000e+00 
8.8000002e+00 0.0000000e+00 0.0000000e+00 
9.0481195e+00 7.3358703e-01 0.0000000e+00 
9.1810904e+00 8.8230300e-01 0.0000000e+00 
9.2557602e+00 9.4870597e-01 0.0000000e+00 
8.9842997e+00 6.5732199e-01 0.0000000e+00 
8.8000002e+00 1.7320500e-01 0.0000000e+00 
9.4985905e+00 1.1091700e+00 0.0000000e+00 
9.6588497e+00 1.1748700e+00 0.0000000e+00 
9.9182100e+00 1.2271700e+00 0.0000000e+00 
9.3251104e+00 1.0312500e+00 0.0000000e+00 
8.9135799e+00 5.8930397e-01 0.0000000e+00 
8.8084297e+00 3.5165700e-01 0.0000000e+00 
8.7500000e+00 8.6602502e-02 0.0000000e+00 
9.8191099e+00 1.2405800e+00 0.0000000e+00 
9.3931599e+00 1.1044700e+00 0.0000000e+00 
8.8464403e+00 5.1585698e-01 0.0000000e+00 
9.5597496e+00 1.1882800e+00 0.0000000e+00 
8.7500000e+00 2.5980800e-01 0.0000000e+00 
9.0928097e+00 9.0680802e-01 0.0000000e+00 
9.0184002e+00 8.2787198e-01 0.0000000e+00 
9.7200098e+00 1.2539901e+00 0.0000000e+00 
8.9546299e+00 7.5233299e-01 0.0000000e+00 
9.1608400e+00 9.7992098e-01 0.0000000e+00 
8.7830696e+00 4.4794399e-01 0.0000000e+00 
1.0000000e+01 1.3000000e+00 0.0000000e+00 
8.6999998e+00 0.0000000e+00 0.0000000e+00 
8.8883896e+00 6.7804497e-01 0.0000000e+00 
9.2278700e+00 1.0539600e+00 0.0000000e+00 
9.4606600e+00 1.2017000e+00 0.0000000e+00 
8.6918802e+00 1.9270100e-01 0.0000000e+00 
9.6209202e+00 1.2674000e+00 0.0000000e+00 
9.8934698e+00 1.3188500e+00 0.0000000e+00 
9.2957001e+00 1.1266800e+00 0.0000000e+00 
8.8160496e+00 6.0906202e-01 0.0000000e+00 
8.7121201e+00 3.7280300e-01 0.0000000e+00 
9.7811699e+00 1.3331100e+00 0.0000000e+00 
9.3628101e+00 1.2006400e+00 0.0000000e+00 
8.7522202e+00 5.4296398e-01 0.0000000e+00 
8.9969301e+00 9.2822403e-01 0.0000000e+00 
9.5218201e+00 1.2808100e+00 0.0000000e+00 
9.0639296e+00 1.0024101e+00 0.0000000e+00 
8.9203396e+00 8.4596699e-01 0.0000000e+00 
8.6267500e+00 1.0301200e-01 0.0000000e+00 
8.8568802e+00 7.7282602e-01 0.0000000e+00 
9.1301403e+00 1.0745500e+00 0.0000000e+00 
9.6820803e+00 1.3465199e+00 0.0000000e+00 
8.6461897e+00 3.0343899e-01 0.0000000e+00 
8.6854296e+00 4.6907300e-01 0.0000000e+00 
8.7924404e+00 7.0606899e-01 0.0000000e+00 
1.0000000e+01 1.4000000e+00 0.0000000e+00 
8.6000004e+00 0.0000000e+00 0.0000000e+00 
9.1987696e+00 1.1492000e+00 0.0000000e+00 
9.4227200e+00 1.2942200e+00 0.0000000e+00 
9.8423405e+00 1.4122200e+00 0.0000000e+00 
9.5829802e+00 1.3599300e+00 0.0000000e+00 
9.2651100e+00 1.2213700e+00 0.0000000e+00 
8.7203903e+00 6.3765901e-01 0.0000000e+00 
8.5783300e+00 2.3014100e-01 0.0000000e+00 
8.6154900e+00 3.9815599e-01 0.0000000e+00 
9.7432404e+00 1.4256300e+00 0.0000000e+00 
8.8996496e+00 9.4893199e-01 0.0000000e+00 
8.9663000e+00 1.0233800e+00 0.0000000e+00 
9.3332996e+00 1.2944700e+00 0.0000000e+00 
8.6545601e+00 5.6251901e-01 0.0000000e+00 
8.8232002e+00 8.6615598e-01 0.0000000e+00 
9.0328102e+00 1.0973001e+00 0.0000000e+00 
8.5388403e+00 7.1274497e-02 0.0000000e+00 
9.4838800e+00 1.3733400e+00 0.0000000e+00 
8.7642403e+00 8.0582702e-01 0.0000000e+00 
9.1010399e+00 1.1701699e+00 0.0000000e+00 
9.6441402e+00 1.4390399e+00 0.0000000e+00 
8.5491400e+00 3.2567400e-01 0.0000000e+00 
8.5171900e+00 1.6373500e-01 0.0000000e+00 
8.5903702e+00 4.9454200e-01 0.0000000e+00 
8.6965504e+00 7.3207003e-01 0.0000000e+00 
9.1679201e+00 1.2442800e+00 0.0000000e+00 
1.0000000e+01 1.5000000e+00 0.0000000e+00 
8.5000000e+00 0.0000000e+00 0.0000000e+00 
9.9187202e+00 1.5001400e+00 0.0000000e+00 
9.3847904e+00 1.3867500e+00 0.0000000e+00 
9.8044004e+00 1.5047500e+00 0.0000000e+00 
8.6287603e+00 6.5904301e-01 0.0000000e+00 
9.5450497e+00 1.4524500e+00 0.0000000e+00 
9.2358704e+00 1.3168499e+00 0.0000000e+00 
8.5254898e+00 4.2105001e-01 0.0000000e+00 
8.4849596e+00 2.5780100e-01 0.0000000e+00 
8.8687496e+00 1.0439600e+00 0.0000000e+00 
8.9374199e+00 1.1185300e+00 0.0000000e+00 
9.7053099e+00 1.5181600e+00 0.0000000e+00 
8.7996702e+00 9.7555703e-01 0.0000000e+00 
8.4502602e+00 8.9625701e-02 0.0000000e+00 
9.0043802e+00 1.1929899e+00 0.0000000e+00 
[...]
POINT_DATA 5817
FIELD FieldData 2
VELOCITY 3 5817  float
0.0000000e+00 0.0000000e+00 0.0000000e+00 
0.0000000e+00 0.0000000e+00 0.0000000e+00 
1.1300824e+00 3.8148511e-02 0.0000000e+00 
1.1059964e+00 1.9542880e-02 0.0000000e+00 
0.0000000e+00 0.0000000e+00 0.0000000e+00 
8.1775451e-01 -5.9729749e-03 0.0000000e+00 
8.3182555e-01 4.4536651e-03 0.0000000e+00 
1.1018482e+00 2.3622396e-03 0.0000000e+00 
8.2374936e-01 3.0721053e-03 0.0000000e+00 
9.2735034e-01 1.1290161e-02 0.0000000e+00 
0.0000000e+00 0.0000000e+00 0.0000000e+00 
9.0505314e-01 2.1036000e-03 0.0000000e+00 
8.2161748e-01 -5.7488721e-04 0.0000000e+00 
1.1010293e+00 -8.1106339e-04 0.0000000e+00 
8.9848191e-01 -1.8228724e-03 0.0000000e+00 
8.8960761e-01 -5.2136029e-03 0.0000000e+00 
8.9206451e-01 -6.4592813e-03 0.0000000e+00 
0.0000000e+00 0.0000000e+00 0.0000000e+00 
8.8663143e-01 -4.3210210e-03 0.0000000e+00 
8.1970143e-01 -4.2601097e-03 0.0000000e+00 
8.9327592e-01 -5.6223255e-03 0.0000000e+00 
8.9559615e-01 -5.6471908e-03 0.0000000e+00 
1.0963217e+00 -2.7442214e-03 0.0000000e+00 
8.8293946e-01 -7.9788445e-03 0.0000000e+00 
9.0392452e-01 -6.7650299e-03 0.0000000e+00 
0.0000000e+00 0.0000000e+00 0.0000000e+00 
8.9049095e-01 -9.8084360e-03 0.0000000e+00 
8.8780510e-01 -7.9606930e-03 0.0000000e+00 
8.7949061e-01 -1.1182545e-02 0.0000000e+00 
8.1915915e-01 -6.9969450e-03 0.0000000e+00 
9.0185273e-01 -8.1694610e-03 0.0000000e+00 
1.0878799e+00 -4.6705515e-03 0.0000000e+00 
8.8596648e-01 -1.2811122e-02 0.0000000e+00 
8.9541298e-01 -1.2605391e-02 0.0000000e+00 
9.0427953e-01 -9.4910124e-03 0.0000000e+00 
0.0000000e+00 0.0000000e+00 0.0000000e+00 
8.9111900e-01 -1.5218553e-02 0.0000000e+00 
8.8128030e-01 -9.8363366e-03 0.0000000e+00 
8.7571698e-01 -1.4281203e-02 0.0000000e+00 
8.9978421e-01 -1.3556395e-02 0.0000000e+00 
8.2059824e-01 -9.6845925e-03 0.0000000e+00 
8.8140768e-01 -1.6037317e-02 0.0000000e+00 
1.0754611e+00 -6.7963772e-03 0.0000000e+00 
8.8675839e-01 -1.8478261e-02 0.0000000e+00 
8.9755499e-01 -1.6792137e-02 0.0000000e+00 
8.7136155e-01 -1.7148791e-02 0.0000000e+00 
0.0000000e+00 0.0000000e+00 0.0000000e+00 
9.0626955e-01 -1.3072392e-02 0.0000000e+00 
8.7366635e-01 -1.1478189e-02 0.0000000e+00 
8.7672842e-01 -1.9247895e-02 0.0000000e+00 
8.9341933e-01 -2.0337479e-02 0.0000000e+00 
8.2450408e-01 -1.2698377e-02 0.0000000e+00 
9.0257490e-01 -1.7421145e-02 0.0000000e+00 
8.8310391e-01 -2.2482393e-02 0.0000000e+00 
1.0585532e+00 -9.2355264e-03 0.0000000e+00 
8.8975447e-01 -2.4265328e-02 0.0000000e+00 
8.9953852e-01 -2.1414701e-02 0.0000000e+00 
8.6619949e-01 -1.9912980e-02 0.0000000e+00 
8.7140584e-01 -2.2781335e-02 0.0000000e+00 
8.6527079e-01 -1.3246146e-02 0.0000000e+00 
9.0693092e-01 -1.7942749e-02 0.0000000e+00 
9.0943849e-01 -1.5330337e-02 0.0000000e+00 
0.0000000e+00 0.0000000e+00 0.0000000e+00 
8.9638948e-01 -2.5480650e-02 0.0000000e+00 
8.3115596e-01 -1.6159881e-02 0.0000000e+00 
8.7758946e-01 -2.7129441e-02 0.0000000e+00 
9.0424973e-01 -2.1861969e-02 0.0000000e+00 
8.8573688e-01 -2.9076649e-02 0.0000000e+00 
1.0369596e+00 -1.1713452e-02 0.0000000e+00 
9.0157032e-01 -2.5955202e-02 0.0000000e+00 
8.6008364e-01 -2.2680648e-02 0.0000000e+00 
8.9302343e-01 -2.9882077e-02 0.0000000e+00 
8.7131917e-01 -2.8740838e-02 0.0000000e+00 
8.6539453e-01 -2.5969708e-02 0.0000000e+00 
8.5648924e-01 -1.5425518e-02 0.0000000e+00 
9.0885717e-01 -2.1876412e-02 0.0000000e+00 
9.1256076e-01 -1.7662199e-02 0.0000000e+00 
0.0000000e+00 0.0000000e+00 0.0000000e+00 
8.3991253e-01 -1.9518804e-02 0.0000000e+00 
8.9864039e-01 -3.0402459e-02 0.0000000e+00 
9.0665108e-01 -2.6057240e-02 0.0000000e+00 
8.8142955e-01 -3.4010179e-02 0.0000000e+00 
8.7400335e-01 -3.3655763e-02 0.0000000e+00 
8.8944900e-01 -3.4560673e-02 0.0000000e+00 
8.6732841e-01 -3.2591760e-02 0.0000000e+00 
1.0108883e+00 -1.3172686e-02 0.0000000e+00 
9.1350472e-01 -2.1515172e-02 0.0000000e+00 
9.0411389e-01 -3.0575346e-02 0.0000000e+00 
8.6054969e-01 -3.0749729e-02 0.0000000e+00 
8.9547348e-01 -3.5143968e-02 0.0000000e+00 
8.5304207e-01 -2.7563233e-02 0.0000000e+00 
8.4745115e-01 -1.8353760e-02 0.0000000e+00 
9.1158515e-01 -2.5782194e-02 0.0000000e+00 
9.1634631e-01 -1.9719269e-02 0.0000000e+00 
0.0000000e+00 0.0000000e+00 0.0000000e+00 
8.8559556e-01 -3.9516564e-02 0.0000000e+00 
8.4942693e-01 -2.2370398e-02 0.0000000e+00 
9.0131670e-01 -3.5386868e-02 0.0000000e+00 
8.7629896e-01 -3.9941091e-02 0.0000000e+00 
9.0941644e-01 -3.0373530e-02 0.0000000e+00 
8.6954474e-01 -3.8779967e-02 0.0000000e+00 
8.9203167e-01 -4.0178824e-02 0.0000000e+00 
8.6256343e-01 -3.7691910e-02 0.0000000e+00 
9.1604942e-01 -2.4456961e-02 0.0000000e+00 
9.8244458e-01 -1.4033229e-02 0.0000000e+00 
9.0700245e-01 -3.5249863e-02 0.0000000e+00 
8.5631263e-01 -3.6047284e-02 0.0000000e+00 
8.9826071e-01 -4.0509328e-02 0.0000000e+00 
8.3753473e-01 -2.1795470e-02 0.0000000e+00 
8.4528661e-01 -3.2849982e-02 0.0000000e+00 
9.1462129e-01 -2.9809209e-02 0.0000000e+00 
9.2035395e-01 -2.1609871e-02 0.0000000e+00 
0.0000000e+00 0.0000000e+00 0.0000000e+00 
8.7919253e-01 -4.6402246e-02 0.0000000e+00 
8.7218612e-01 -4.5729756e-02 0.0000000e+00 
8.5671735e-01 -2.5987672e-02 0.0000000e+00 
9.0434039e-01 -4.0437691e-02 0.0000000e+00 
8.6501271e-01 -4.4383924e-02 0.0000000e+00 
9.1256714e-01 -3.4758747e-02 0.0000000e+00 
8.8631642e-01 -4.6907682e-02 0.0000000e+00 
8.9491254e-01 -4.5950603e-02 0.0000000e+00 
8.5780907e-01 -4.3126047e-02 0.0000000e+00 
9.1955173e-01 -2.8383169e-02 0.0000000e+00 
9.4479263e-01 -1.9564619e-02 0.0000000e+00 
8.3561116e-01 -3.3298597e-02 0.0000000e+00 
8.5125613e-01 -4.0922839e-02 0.0000000e+00 
9.1028363e-01 -3.9997317e-02 0.0000000e+00 
9.0142363e-01 -4.5939147e-02 0.0000000e+00 
8.3006734e-01 -2.7510902e-02 0.0000000e+00 
9.1798240e-01 -3.3906128e-02 0.0000000e+00 
8.7501073e-01 -5.2285448e-02 0.0000000e+00 
8.4378028e-01 -3.8707424e-02 0.0000000e+00 
9.2477590e-01 -2.3336541e-02 0.0000000e+00 
0.0000000e+00 0.0000000e+00 0.0000000e+00 
8.6746550e-01 -5.1502611e-02 0.0000000e+00 
8.8243002e-01 -5.2897461e-02 0.0000000e+00 
8.8951534e-01 -5.2122876e-02 0.0000000e+00 
8.5994083e-01 -4.9901940e-02 0.0000000e+00 
8.6797541e-01 -3.5599764e-02 0.0000000e+00 
9.0776163e-01 -4.5552347e-02 0.0000000e+00 
9.1607940e-01 -3.9201573e-02 0.0000000e+00 
9.2459702e-01 -2.7611708e-02 0.0000000e+00 
8.9704674e-01 -5.1974431e-02 0.0000000e+00 
8.5202116e-01 -4.8648376e-02 0.0000000e+00 
8.2968104e-01 -3.5477243e-02 0.0000000e+00 
9.1691476e-01 -3.4793843e-02 0.0000000e+00 
9.2326391e-01 -3.2705963e-02 0.0000000e+00 
9.0381098e-01 -5.1122632e-02 0.0000000e+00 
8.4494871e-01 -4.6400003e-02 0.0000000e+00 
9.1394889e-01 -4.4800576e-02 0.0000000e+00 
8.2374734e-01 -2.8340504e-02 0.0000000e+00 
8.7913728e-01 -5.8966395e-02 0.0000000e+00 
8.7059861e-01 -5.8605358e-02 0.0000000e+00 
9.2173576e-01 -3.8052626e-02 0.0000000e+00 
8.6264217e-01 -5.7346214e-02 0.0000000e+00 
8.8673431e-01 -5.8856007e-02 0.0000000e+00 
8.3945185e-01 -4.4232883e-02 0.0000000e+00 
9.2945433e-01 -2.4912076e-02 0.0000000e+00 
0.0000000e+00 0.0000000e+00 0.0000000e+00 
8.5463715e-01 -5.5795878e-02 0.0000000e+00 
8.9412469e-01 -5.8443937e-02 0.0000000e+00 
9.1158080e-01 -5.0715141e-02 0.0000000e+00 
8.6701512e-01 -3.2358006e-02 0.0000000e+00 
9.1997749e-01 -4.3693885e-02 0.0000000e+00 
9.2868656e-01 -3.0511755e-02 0.0000000e+00 
9.0127587e-01 -5.7549309e-02 0.0000000e+00 
8.4599352e-01 -5.4247458e-02 0.0000000e+00 
8.2440948e-01 -4.1826930e-02 0.0000000e+00 
9.2725664e-01 -3.6573801e-02 0.0000000e+00 
9.0817600e-01 -5.6375086e-02 0.0000000e+00 
8.3819491e-01 -5.1805176e-02 0.0000000e+00 
8.7503302e-01 -6.5672494e-02 0.0000000e+00 
9.1800797e-01 -4.9640231e-02 0.0000000e+00 
8.8313890e-01 -6.5710701e-02 0.0000000e+00 
8.6565721e-01 -6.5197073e-02 0.0000000e+00 
9.2459631e-01 -2.4475165e-02 0.0000000e+00 
8.5727823e-01 -6.3940361e-02 0.0000000e+00 
8.9088207e-01 -6.5260917e-02 0.0000000e+00 
9.2582405e-01 -4.2252779e-02 0.0000000e+00 
8.0647534e-01 -3.7473880e-02 0.0000000e+00 
8.3341986e-01 -4.8057161e-02 0.0000000e+00 
8.4926647e-01 -6.2749140e-02 0.0000000e+00 
9.3448144e-01 -2.6392195e-02 0.0000000e+00 
0.0000000e+00 0.0000000e+00 0.0000000e+00 
8.9863479e-01 -6.4360410e-02 0.0000000e+00 
9.1581798e-01 -5.5907186e-02 0.0000000e+00 
9.3269879e-01 -3.4780011e-02 0.0000000e+00 
9.2420965e-01 -4.8216231e-02 0.0000000e+00 
9.0584916e-01 -6.3111588e-02 0.0000000e+00 
8.4011567e-01 -6.1327521e-02 0.0000000e+00 
8.3659559e-01 -3.9899852e-02 0.0000000e+00 
8.2461816e-01 -4.3932073e-02 0.0000000e+00 
9.3157506e-01 -4.0532168e-02 0.0000000e+00 
8.7049711e-01 -7.2819911e-02 0.0000000e+00 
8.7915480e-01 -7.2957180e-02 0.0000000e+00 
9.1292304e-01 -6.1447792e-02 0.0000000e+00 
8.3019894e-01 -5.8546141e-02 0.0000000e+00 
8.6054027e-01 -7.2209969e-02 0.0000000e+00 
8.8755244e-01 -7.2583012e-02 0.0000000e+00 
6.9984770e-01 -4.2788712e-03 0.0000000e+00 
9.2241919e-01 -5.4490361e-02 0.0000000e+00 
8.5262799e-01 -7.1377628e-02 0.0000000e+00 
8.9566481e-01 -7.1587868e-02 0.0000000e+00 
9.3029159e-01 -4.6488248e-02 0.0000000e+00 
8.0346298e-01 -3.7741076e-02 0.0000000e+00 
8.9980024e-01 -4.7043849e-02 0.0000000e+00 
8.2280982e-01 -5.5786803e-02 0.0000000e+00 
8.4357709e-01 -6.9641009e-02 0.0000000e+00 
9.0349650e-01 -7.0329763e-02 0.0000000e+00 
9.3965602e-01 -2.7652560e-02 0.0000000e+00 
0.0000000e+00 0.0000000e+00 0.0000000e+00 
9.3862998e-01 -3.2065589e-02 0.0000000e+00 
9.2043883e-01 -6.1086617e-02 0.0000000e+00 
9.3709499e-01 -3.8491748e-02 0.0000000e+00 
8.3431774e-01 -6.7155816e-02 0.0000000e+00 
9.2884713e-01 -5.2748948e-02 0.0000000e+00 
9.1097367e-01 -6.8571731e-02 0.0000000e+00 
8.1645662e-01 -5.1919874e-02 0.0000000e+00 
8.1279773e-01 -3.0999649e-02 0.0000000e+00 
8.7485129e-01 -8.0667481e-02 0.0000000e+00 
8.8397688e-01 -8.0173463e-02 0.0000000e+00 
9.3614191e-01 -4.4473600e-02 0.0000000e+00 
8.6579299e-01 -8.1029557e-02 0.0000000e+00 
7.8706622e-01 -3.4494240e-02 0.0000000e+00 
8.9266062e-01 -7.9291001e-02 0.0000000e+00 
8.5640675e-01 -8.0336176e-02 0.0000000e+00 
9.1820037e-01 -6.6588454e-02 0.0000000e+00 
8.2434326e-01 -6.4323366e-02 0.0000000e+00 
9.2726308e-01 -5.9328482e-02 0.0000000e+00 
8.4641445e-01 -7.8975335e-02 0.0000000e+00 
9.0077299e-01 -7.7924065e-02 0.0000000e+00 
9.3503529e-01 -5.0709140e-02 0.0000000e+00 
7.9566675e-01 -4.8037332e-02 0.0000000e+00 
9.4255537e-01 -3.6194086e-02 0.0000000e+00 
8.3654815e-01 -7.7056773e-02 0.0000000e+00 
9.0113348e-01 -3.2568991e-02 0.0000000e+00 
9.0875900e-01 -7.6057442e-02 0.0000000e+00 
8.1513691e-01 -6.0270429e-02 0.0000000e+00 
9.4512403e-01 -2.8865648e-02 0.0000000e+00 
0.0000000e+00 0.0000000e+00 0.0000000e+00 
9.4188464e-01 -4.2191401e-02 0.0000000e+00 
9.2549604e-01 -6.6259459e-02 0.0000000e+00 
8.2691181e-01 -7.4724399e-02 0.0000000e+00 
9.1643566e-01 -7.4013330e-02 0.0000000e+00 
9.3379205e-01 -5.7246830e-02 0.0000000e+00 
8.8001335e-01 -8.8395484e-02 0.0000000e+00 
8.7044674e-01 -8.8991843e-02 0.0000000e+00 
8.0923575e-01 -5.5051796e-02 0.0000000e+00 
8.8924116e-01 -8.7463461e-02 0.0000000e+00 
8.6049455e-01 -8.9203745e-02 0.0000000e+00 
7.8603637e-01 -4.0956281e-02 0.0000000e+00 
9.2266601e-01 -7.1482345e-02 0.0000000e+00 
9.4108498e-01 -4.8411623e-02 0.0000000e+00 
8.5053629e-01 -8.8421196e-02 0.0000000e+00 
8.9813060e-01 -8.6088702e-02 0.0000000e+00 
8.1679040e-01 -7.0955418e-02 0.0000000e+00 
8.6200595e-01 -2.1477370e-02 0.0000000e+00 
8.3989483e-01 -8.6920179e-02 0.0000000e+00 
9.0653825e-01 -8.4083840e-02 0.0000000e+00 
9.4790995e-01 -3.3696547e-02 0.0000000e+00 
9.3240923e-01 -6.4113311e-02 0.0000000e+00 
9.4017035e-01 -5.4902148e-02 0.0000000e+00 
7.9315913e-01 -4.8876289e-02 0.0000000e+00 
9.4746357e-01 -3.9667692e-02 0.0000000e+00 
8.0626041e-01 -6.6406131e-02 0.0000000e+00 
9.1454691e-01 -8.1879839e-02 0.0000000e+00 
8.2927722e-01 -8.4968507e-02 0.0000000e+00 
8.6524665e-01 -4.1835777e-02 0.0000000e+00 
0.0000000e+00 0.0000000e+00 0.0000000e+00 
9.5077628e-01 -2.9870464e-02 0.0000000e+00 
9.4694537e-01 -4.5867216e-02 0.0000000e+00 
8.7585890e-01 -9.7244009e-02 0.0000000e+00 
8.1851006e-01 -8.1881985e-02 0.0000000e+00 
8.8575369e-01 -9.6199594e-02 0.0000000e+00 
9.2227340e-01 -7.9231828e-02 0.0000000e+00 
8.6588538e-01 -9.7958229e-02 0.0000000e+00 
9.2954415e-01 -7.3254362e-02 0.0000000e+00 
9.3913704e-01 -6.1720766e-02 0.0000000e+00 
8.5527372e-01 -9.7693443e-02 0.0000000e+00 
8.9500773e-01 -9.4685607e-02 0.0000000e+00 
7.9848456e-01 -6.1502650e-02 0.0000000e+00 
7.6797909e-01 -3.6637671e-02 0.0000000e+00 
8.4446442e-01 -9.7043037e-02 0.0000000e+00 
9.0402848e-01 -9.2580229e-02 0.0000000e+00 
8.7329519e-01 -1.5457069e-02 0.0000000e+00 
9.4632119e-01 -5.2307121e-02 0.0000000e+00 
9.5220768e-01 -3.6094442e-02 0.0000000e+00 
8.0786699e-01 -7.7761628e-02 0.0000000e+00 
8.3284897e-01 -9.5743932e-02 0.0000000e+00 
9.1273272e-01 -9.0256527e-02 0.0000000e+00 
9.3797839e-01 -6.8885803e-02 0.0000000e+00 
9.4560432e-01 -5.9042025e-02 0.0000000e+00 
9.5262909e-01 -4.3100700e-02 0.0000000e+00 
7.8676683e-01 -5.6454826e-02 0.0000000e+00 
9.2085499e-01 -8.7421350e-02 0.0000000e+00 
8.2146174e-01 -9.3536735e-02 0.0000000e+00 
7.9620194e-01 -7.2387844e-02 0.0000000e+00 
8.3813792e-01 -2.1536710e-02 0.0000000e+00 
8.7147135e-01 -1.0669268e-01 0.0000000e+00 
8.8192022e-01 -1.0552309e-01 0.0000000e+00 
9.5657945e-01 -3.0803861e-02 0.0000000e+00 
0.0000000e+00 0.0000000e+00 0.0000000e+00 
8.6044401e-01 -1.0731381e-01 0.0000000e+00 
8.9200646e-01 -1.0390837e-01 0.0000000e+00 
9.5225364e-01 -4.9501341e-02 0.0000000e+00 
8.0945051e-01 -9.0058640e-02 0.0000000e+00 
8.4942168e-01 -1.0715095e-01 0.0000000e+00 
9.2882466e-01 -8.4410280e-02 0.0000000e+00 
9.0158761e-01 -1.0161468e-01 0.0000000e+00 
9.4479650e-01 -6.6110380e-02 0.0000000e+00 
7.4614370e-01 -5.0035555e-02 0.0000000e+00 
8.3780462e-01 -1.0657181e-01 0.0000000e+00 
7.8715438e-01 -6.6410989e-02 0.0000000e+00 
9.1056550e-01 -9.9102065e-02 0.0000000e+00 
9.3663776e-01 -7.8763135e-02 0.0000000e+00 
9.5181793e-01 -5.6144185e-02 0.0000000e+00 
9.2875171e-01 -3.4631307e-03 0.0000000e+00 
7.9787719e-01 -8.5818268e-02 0.0000000e+00 
9.5790374e-01 -3.9559722e-02 0.0000000e+00 
9.1921389e-01 -9.6040450e-02 0.0000000e+00 
8.2519388e-01 -1.0511255e-01 0.0000000e+00 
7.8307623e-01 -5.7713863e-02 0.0000000e+00 
9.5804471e-01 -4.6506636e-02 0.0000000e+00 
8.1306118e-01 -1.0228753e-01 0.0000000e+00 
9.5133305e-01 -6.3107952e-02 0.0000000e+00 
9.4390070e-01 -7.5168788e-02 0.0000000e+00 
9.2762911e-01 -9.2920229e-02 0.0000000e+00 
8.7805259e-01 -1.1552659e-01 0.0000000e+00 
7.8468555e-01 -8.0525815e-02 0.0000000e+00 
7.5264192e-01 -4.0400516e-02 0.0000000e+00 
8.6674362e-01 -1.1684699e-01 0.0000000e+00 
8.8850135e-01 -1.1370049e-01 0.0000000e+00 
8.9877629e-01 -1.1124646e-01 0.0000000e+00 
8.5500574e-01 -1.1758913e-01 0.0000000e+00 
9.6245724e-01 -3.1482410e-02 0.0000000e+00 
0.0000000e+00 0.0000000e+00 0.0000000e+00 
8.4279418e-01 -1.1727329e-01 0.0000000e+00 
9.5786673e-01 -5.3066608e-02 0.0000000e+00 
9.0863675e-01 -1.0858028e-01 0.0000000e+00 
7.9997146e-01 -9.8825328e-02 0.0000000e+00 
6.6470629e-01 8.4831798e-03 0.0000000e+00 
9.3561065e-01 -8.8925749e-02 0.0000000e+00 
9.5079386e-01 -7.0399813e-02 0.0000000e+00 
7.5221562e-01 -4.8793491e-02 0.0000000e+00 
8.3029002e-01 -1.1652991e-01 0.0000000e+00 
9.1769940e-01 -1.0527479e-01 0.0000000e+00 
9.6344858e-01 -3.7024882e-02 0.0000000e+00 
7.7131701e-01 -7.4192584e-02 0.0000000e+00 
8.5995156e-01 -3.2399654e-02 0.0000000e+00 
9.5765227e-01 -5.9895884e-02 0.0000000e+00 
7.8709662e-01 -9.3630157e-02 0.0000000e+00 
8.1664926e-01 -1.1502217e-01 0.0000000e+00 
9.6352339e-01 -4.3322634e-02 0.0000000e+00 
9.4307154e-01 -8.5614257e-02 0.0000000e+00 
9.2662293e-01 -1.0189206e-01 0.0000000e+00 
8.7366462e-01 -1.2612824e-01 0.0000000e+00 
8.8514292e-01 -1.2429029e-01 0.0000000e+00 
7.6698285e-01 -6.5778330e-02 0.0000000e+00 
9.6359432e-01 -4.9801398e-02 0.0000000e+00 
8.6143905e-01 -1.2749995e-01 0.0000000e+00 
8.0343878e-01 -1.1224654e-01 0.0000000e+00 
8.9602268e-01 -1.2159315e-01 0.0000000e+00 
9.5740265e-01 -6.7029938e-02 0.0000000e+00 
9.3487316e-01 -9.7996302e-02 0.0000000e+00 
7.2028685e-01 -3.8795158e-02 0.0000000e+00 
7.7341110e-01 -8.7362468e-02 0.0000000e+00 
8.4871811e-01 -1.2838317e-01 0.0000000e+00 
9.0620697e-01 -1.1858712e-01 0.0000000e+00 
9.5015043e-01 -8.1592828e-02 0.0000000e+00 
8.3603942e-01 -1.2825988e-01 0.0000000e+00 
9.6856248e-01 -3.2154594e-02 0.0000000e+00 
0.0000000e+00 0.0000000e+00 0.0000000e+00 
9.1587305e-01 -1.1496307e-01 0.0000000e+00 
9.6363550e-01 -5.6518264e-02 0.0000000e+00 
7.8935289e-01 -1.0824113e-01 0.0000000e+00 
7.4371964e-01 -1.4466114e-02 0.0000000e+00 
9.4287848e-01 -9.4119787e-02 0.0000000e+00 
8.2254338e-01 -1.2761098e-01 0.0000000e+00 
9.6915388e-01 -3.9052494e-02 0.0000000e+00 
7.4648517e-01 -5.5938713e-02 0.0000000e+00 
9.2537940e-01 -1.1141960e-01 0.0000000e+00 
7.5801522e-01 -8.0408677e-02 0.0000000e+00 
8.2475656e-01 -3.1338543e-02 0.0000000e+00 
9.5693815e-01 -7.7585272e-02 0.0000000e+00 
9.6365803e-01 -6.3518412e-02 0.0000000e+00 
7.7493340e-01 -1.0316408e-01 0.0000000e+00 
8.0763733e-01 -1.2583037e-01 0.0000000e+00 
9.3402952e-01 -1.0714971e-01 0.0000000e+00 
9.6937537e-01 -4.6410974e-02 0.0000000e+00 
9.5025605e-01 -8.9863598e-02 0.0000000e+00 
8.8147783e-01 -1.3528025e-01 0.0000000e+00 
8.6905950e-01 -1.3760845e-01 0.0000000e+00 
8.9293593e-01 -1.3251564e-01 0.0000000e+00 
7.5132811e-01 -7.1104355e-02 0.0000000e+00 
8.5625184e-01 -1.3921501e-01 0.0000000e+00 
9.0413594e-01 -1.2940383e-01 0.0000000e+00 
9.6961814e-01 -5.3025994e-02 0.0000000e+00 
7.9341727e-01 -1.2271811e-01 0.0000000e+00 
9.4247472e-01 -1.0306723e-01 0.0000000e+00 
9.6367574e-01 -7.0838913e-02 0.0000000e+00 
8.4262210e-01 -1.4022563e-01 0.0000000e+00 
9.1436589e-01 -1.2543248e-01 0.0000000e+00 
7.0328927e-01 -4.9230188e-02 0.0000000e+00 
7.6073837e-01 -9.7406678e-02 0.0000000e+00 
9.5734072e-01 -8.5569642e-02 0.0000000e+00 
8.2857871e-01 -1.4006712e-01 0.0000000e+00 
9.2431396e-01 -1.2119204e-01 0.0000000e+00 
9.7457236e-01 -3.2626569e-02 0.0000000e+00 
0.0000000e+00 0.0000000e+00 0.0000000e+00 
7.4741709e-01 -8.8608235e-02 0.0000000e+00 
9.6986282e-01 -5.9881244e-02 0.0000000e+00 
8.3613878e-01 -2.1628005e-02 0.0000000e+00 
7.7815974e-01 -1.1862549e-01 0.0000000e+00 
9.5025438e-01 -9.8466672e-02 0.0000000e+00 
8.1395423e-01 -1.3940299e-01 0.0000000e+00 
9.3351918e-01 -1.1693735e-01 0.0000000e+00 
9.7464478e-01 -4.2845264e-02 0.0000000e+00 
7.3937702e-01 -6.0445130e-02 0.0000000e+00 
7.4079961e-01 -4.8806526e-02 0.0000000e+00 
9.6394551e-01 -8.1019759e-02 0.0000000e+00 
9.7012734e-01 -6.7019917e-02 0.0000000e+00 
7.6289940e-01 -1.1334638e-01 0.0000000e+00 
9.4219756e-01 -1.1212603e-01 0.0000000e+00 
7.9781437e-01 -1.3750724e-01 0.0000000e+00 
9.7504818e-01 -4.9388614e-02 0.0000000e+00 
8.7740993e-01 -1.4736417e-01 0.0000000e+00 
8.9009976e-01 -1.4443798e-01 0.0000000e+00 
9.0186894e-01 -1.4054453e-01 0.0000000e+00 
8.6446792e-01 -1.5009348e-01 0.0000000e+00 
9.5767856e-01 -9.3939520e-02 0.0000000e+00 
8.5073334e-01 -1.5184513e-01 0.0000000e+00 
9.1277122e-01 -1.3658088e-01 0.0000000e+00 
7.3210937e-01 -8.2489356e-02 0.0000000e+00 
8.3607501e-01 -1.5261087e-01 0.0000000e+00 
7.8256255e-01 -1.3449655e-01 0.0000000e+00 
9.7548503e-01 -5.6094017e-02 0.0000000e+00 
9.2342526e-01 -1.3196281e-01 0.0000000e+00 
5.7810485e-01 3.4957842e-04 0.0000000e+00 
7.0852506e-01 -4.8883233e-02 0.0000000e+00 
9.5050359e-01 -1.0759203e-01 0.0000000e+00 
9.7042882e-01 -7.4455753e-02 0.0000000e+00 
7.4725413e-01 -1.0667541e-01 0.0000000e+00 
8.2085806e-01 -1.5304731e-01 0.0000000e+00 