# vtk DataFile Version 4.0
vtk output
ASCII
DATASET UNSTRUCTURED_GRID
POINTS 5817 float
1.0000000e+01 0.0000000e+00 0.0000000e+00 
9.8999996e+00 0.0000000e+00 0.0000000e+00 
1.0000000e+01 1.0000000e-01 0.0000000e+00 
9.8583298e+00 8.8835500e-02 0.0000000e+00 
9.8000002e+00 0.0000000e+00 0.0000000e+00 
1.0000000e+01 2.0000000e-01 0.0000000e+00 
9.8999996e+00 1.7320500e-01 0.0000000e+00 
9.7500000e+00 8.6602502e-02 0.0000000e+00 
9.8000002e+00 1.7320500e-01 0.0000000e+00 
1.0000000e+01 3.0000001e-01 0.0000000e+00 
9.6999998e+00 0.0000000e+00 0.0000000e+00 
9.8583298e+00 2.6650599e-01 0.0000000e+00 
9.6999998e+00 1.7320500e-01 0.0000000e+00 
9.6499996e+00 8.6602502e-02 0.0000000e+00 
9.7500000e+00 2.5980800e-01 0.0000000e+00 
9.9033298e+00 3.4808499e-01 0.0000000e+00 
1.0000000e+01 4.0000001e-01 0.0000000e+00 
9.6000004e+00 0.0000000e+00 0.0000000e+00 
9.8000002e+00 3.4641001e-01 0.0000000e+00 
9.6000004e+00 1.7320500e-01 0.0000000e+00 
9.6499996e+00 2.5980800e-01 0.0000000e+00 
9.8583298e+00 4.2751101e-01 0.0000000e+00 
9.5500002e+00 8.6602502e-02 0.0000000e+00 
9.6999998e+00 3.4641001e-01 0.0000000e+00 
1.0000000e+01 5.0000000e-01 0.0000000e+00 
9.5000000e+00 0.0000000e+00 0.0000000e+00 
9.7500000e+00 4.3301299e-01 0.0000000e+00 
9.5500002e+00 2.5980800e-01 0.0000000e+00 
9.6000004e+00 3.4641001e-01 0.0000000e+00 
9.5000000e+00 1.7320500e-01 0.0000000e+00 
9.8999996e+00 5.1961499e-01 0.0000000e+00 
9.4499998e+00 8.6602502e-02 0.0000000e+00 
9.6499996e+00 4.3301299e-01 0.0000000e+00 
9.8000002e+00 5.1961499e-01 0.0000000e+00 
1.0000000e+01 6.0000002e-01 0.0000000e+00 
9.3999996e+00 0.0000000e+00 0.0000000e+00 
9.6999998e+00 5.1961499e-01 0.0000000e+00 
9.4499998e+00 2.5980800e-01 0.0000000e+00 
9.5000000e+00 3.4641001e-01 0.0000000e+00 
9.8893099e+00 6.1410201e-01 0.0000000e+00 
9.3999996e+00 1.7320500e-01 0.0000000e+00 
9.5500002e+00 4.3301299e-01 0.0000000e+00 
9.3500004e+00 8.6602502e-02 0.0000000e+00 
9.6000004e+00 5.1961499e-01 0.0000000e+00 
9.7873602e+00 6.3313198e-01 0.0000000e+00 
9.3999996e+00 3.4641001e-01 0.0000000e+00 
9.3000002e+00 0.0000000e+00 0.0000000e+00 
1.0000000e+01 6.9999999e-01 0.0000000e+00 
9.3500004e+00 2.5980800e-01 0.0000000e+00 
9.4499998e+00 4.3301299e-01 0.0000000e+00 
9.6772203e+00 6.2931901e-01 0.0000000e+00 
9.3000002e+00 1.7320500e-01 0.0000000e+00 
9.8485203e+00 7.1224803e-01 0.0000000e+00 
9.5041599e+00 5.3742099e-01 0.0000000e+00 
9.2500000e+00 8.6602502e-02 0.0000000e+00 
9.5762100e+00 6.3882500e-01 0.0000000e+00 
9.7494297e+00 7.2565800e-01 0.0000000e+00 
9.3000002e+00 3.4641001e-01 0.0000000e+00 
9.3420296e+00 4.3454701e-01 0.0000000e+00 
9.2500000e+00 2.5980800e-01 0.0000000e+00 
9.9096899e+00 7.9136300e-01 0.0000000e+00 
1.0000000e+01 8.0000001e-01 0.0000000e+00 
9.1999998e+00 0.0000000e+00 0.0000000e+00 
9.6503296e+00 7.3906797e-01 0.0000000e+00 
9.1999998e+00 1.7320500e-01 0.0000000e+00 
9.3813105e+00 5.4442602e-01 0.0000000e+00 
9.8105898e+00 8.0477297e-01 0.0000000e+00 
9.4674196e+00 6.5563202e-01 0.0000000e+00 
9.1499996e+00 8.6602502e-02 0.0000000e+00 
9.7114897e+00 8.1818300e-01 0.0000000e+00 
9.1999998e+00 3.4641001e-01 0.0000000e+00 
9.5512304e+00 7.5247800e-01 0.0000000e+00 
9.2865801e+00 5.0924700e-01 0.0000000e+00 
9.2342796e+00 4.2777699e-01 0.0000000e+00 
9.1499996e+00 2.5980800e-01 0.0000000e+00 
9.8717499e+00 8.8388801e-01 0.0000000e+00 
1.0000000e+01 8.9999998e-01 0.0000000e+00 
9.1000004e+00 0.0000000e+00 0.0000000e+00 
9.1000004e+00 1.7320500e-01 0.0000000e+00 
9.6124001e+00 8.3159399e-01 0.0000000e+00 
9.7726603e+00 8.9729899e-01 0.0000000e+00 
9.3619204e+00 6.7122602e-01 0.0000000e+00 
9.2737198e+00 5.9348202e-01 0.0000000e+00 
9.4521399e+00 7.6588798e-01 0.0000000e+00 
9.2042999e+00 5.2308202e-01 0.0000000e+00 
9.0500002e+00 8.6602502e-02 0.0000000e+00 
9.9329100e+00 9.6300399e-01 0.0000000e+00 
9.6735601e+00 9.1070902e-01 0.0000000e+00 
9.1368198e+00 4.4975999e-01 0.0000000e+00 
9.5132999e+00 8.4500402e-01 0.0000000e+00 
9.0923996e+00 3.6564499e-01 0.0000000e+00 
9.0500002e+00 2.5980800e-01 0.0000000e+00 
9.8338203e+00 9.7641402e-01 0.0000000e+00 
1.0000000e+01 1.0000000e+00 0.0000000e+00 
9.0000000e+00 0.0000000e+00 0.0000000e+00 
9.3530397e+00 7.7929902e-01 0.0000000e+00 
9.0000000e+00 1.7320500e-01 0.0000000e+00 
9.5744600e+00 9.2411900e-01 0.0000000e+00 
9.2438698e+00 6.8863100e-01 0.0000000e+00 
9.7347202e+00 9.8982400e-01 0.0000000e+00 
9.1771202e+00 6.1455202e-01 0.0000000e+00 
9.4141998e+00 8.5841399e-01 0.0000000e+00 
9.1068001e+00 5.4364800e-01 0.0000000e+00 
9.9044905e+00 1.0417700e+00 0.0000000e+00 
8.9499998e+00 8.6602502e-02 0.0000000e+00 
9.6356201e+00 1.0032300e+00 0.0000000e+00 
9.0417004e+00 4.7562101e-01 0.0000000e+00 
9.4753599e+00 9.3752903e-01 0.0000000e+00 
8.9499998e+00 2.5980800e-01 0.0000000e+00 
8.9784098e+00 3.7431899e-01 0.0000000e+00 
9.7958803e+00 1.0689400e+00 0.0000000e+00 
1.0000000e+01 1.1000000e+00 0.0000000e+00 
8.8999996e+00 0.0000000e+00 0.0000000e+00 
9.2132702e+00 7.8782201e-01 0.0000000e+00 
9.1461802e+00 7.1470100e-01 0.0000000e+00 
8.8999996e+00 1.7320500e-01 0.0000000e+00 
9.5365295e+00 1.0166399e+00 0.0000000e+00 
9.0804300e+00 6.3953602e-01 0.0000000e+00 
9.6967897e+00 1.0823500e+00 0.0000000e+00 
9.2791595e+00 8.6298501e-01 0.0000000e+00 
9.3762703e+00 9.5093900e-01 0.0000000e+00 
9.0110798e+00 5.7062602e-01 0.0000000e+00 
9.8643503e+00 1.1422800e+00 0.0000000e+00 
8.8500004e+00 8.6602502e-02 0.0000000e+00 
8.8924799e+00 3.3931199e-01 0.0000000e+00 
8.9442501e+00 4.9722099e-01 0.0000000e+00 
9.5976896e+00 1.0957600e+00 0.0000000e+00 
9.4374304e+00 1.0300500e+00 0.0000000e+00 
8.8500004e+00 2.5980800e-01 0.0000000e+00 
9.7579498e+00 1.1614600e+00 0.0000000e+00 
9.1158600e+00 8.0676198e-01 0.0000000e+00 
8.8780699e+00 4.2282000e-01 0.0000000e+00 
1.0000000e+01 1.2000000e+00 0.0000000e+00 
8.8000002e+00 0.0000000e+00 0.0000000e+00 
9.0481195e+00 7.3358703e-01 0.0000000e+00 
9.1810904e+00 8.8230300e-01 0.0000000e+00 
9.2557602e+00 9.4870597e-01 0.0000000e+00 
8.9842997e+00 6.5732199e-01 0.0000000e+00 
8.8000002e+00 1.7320500e-01 0.0000000e+00 
9.4985905e+00 1.1091700e+00 0.0000000e+00 
9.6588497e+00 1.1748700e+00 0.0000000e+00 
9.9182100e+00 1.2271700e+00 0.0000000e+00 
9.3251104e+00 1.0312500e+00 0.0000000e+00 
8.9135799e+00 5.8930397e-01 0.0000000e+00 
8.8084297e+00 3.5165700e-01 0.0000000e+00 
8.7500000e+00 8.6602502e-02 0.0000000e+00 
9.8191099e+00 1.2405800e+00 0.0000000e+00 
9.3931599e+00 1.1044700e+00 0.0000000e+00 
8.8464403e+00 5.1585698e-01 0.0000000e+00 
9.5597496e+00 1.1882800e+00 0.0000000e+00 
8.7500000e+00 2.5980800e-01 0.0000000e+00 
9.0928097e+00 9.0680802e-01 0.0000000e+00 
9.0184002e+00 8.2787198e-01 0.0000000e+00 
9.7200098e+00 1.2539901e+00 0.0000000e+00 
8.9546299e+00 7.5233299e-01 0.0000000e+00 
9.1608400e+00 9.7992098e-01 0.0000000e+00 
8.7830696e+00 4.4794399e-01 0.0000000e+00 
1.0000000e+01 1.3000000e+00 0.0000000e+00 
8.6999998e+00 0.0000000e+00 0.0000000e+00 
8.8883896e+00 6.7804497e-01 0.0000000e+00 
9.2278700e+00 1.0539600e+00 0.0000000e+00 
9.4606600e+00 1.2017000e+00 0.0000000e+00 
8.6918802e+00 1.9270100e-01 0.0000000e+00 
9.6209202e+00 1.2674000e+00 0.0000000e+00 
9.8934698e+00 1.3188500e+00 0.0000000e+00 
9.2957001e+00 1.1266800e+00 0.0000000e+00 
8.8160496e+00 6.0906202e-01 0.0000000e+00 
8.7121201e+00 3.7280300e-01 0.0000000e+00 
9.7811699e+00 1.3331100e+00 0.0000000e+00 
9.3628101e+00 1.2006400e+00 0.0000000e+00 
8.7522202e+00 5.4296398e-01 0.0000000e+00 
8.9969301e+00 9.2822403e-01 0.0000000e+00 
9.5218201e+00 1.2808100e+00 0.0000000e+00 
9.0639296e+00 1.0024101e+00 0.0000000e+00 
8.9203396e+00 8.4596699e-01 0.0000000e+00 
8.6267500e+00 1.0301200e-01 0.0000000e+00 
8.8568802e+00 7.7282602e-01 0.0000000e+00 
9.1301403e+00 1.0745500e+00 0.0000000e+00 
9.6820803e+00 1.3465199e+00 0.0000000e+00 
8.6461897e+00 3.0343899e-01 0.0000000e+00 
8.6854296e+00 4.6907300e-01 0.0000000e+00 
8.7924404e+00 7.0606899e-01 0.0000000e+00 
1.0000000e+01 1.4000000e+00 0.0000000e+00 
8.6000004e+00 0.0000000e+00 0.0000000e+00 
9.1987696e+00 1.1492000e+00 0.0000000e+00 
9.4227200e+00 1.2942200e+00 0.0000000e+00 
9.8423405e+00 1.4122200e+00 0.0000000e+00 
9.5829802e+00 1.3599300e+00 0.0000000e+00 
9.2651100e+00 1.2213700e+00 0.0000000e+00 
8.7203903e+00 6.3765901e-01 0.0000000e+00 
8.5783300e+00 2.3014100e-01 0.0000000e+00 
8.6154900e+00 3.9815599e-01 0.0000000e+00 
9.7432404e+00 1.4256300e+00 0.0000000e+00 
8.8996496e+00 9.4893199e-01 0.0000000e+00 
8.9663000e+00 1.0233800e+00 0.0000000e+00 
9.3332996e+00 1.2944700e+00 0.0000000e+00 
8.6545601e+00 5.6251901e-01 0.0000000e+00 
8.8232002e+00 8.6615598e-01 0.0000000e+00 
9.0328102e+00 1.0973001e+00 0.0000000e+00 
8.5388403e+00 7.1274497e-02 0.0000000e+00 
9.4838800e+00 1.3733400e+00 0.0000000e+00 
8.7642403e+00 8.0582702e-01 0.0000000e+00 
9.1010399e+00 1.1701699e+00 0.0000000e+00 
9.6441402e+00 1.4390399e+00 0.0000000e+00 
8.5491400e+00 3.2567400e-01 0.0000000e+00 
8.5171900e+00 1.6373500e-01 0.0000000e+00 
8.5903702e+00 4.9454200e-01 0.0000000e+00 
8.6965504e+00 7.3207003e-01 0.0000000e+00 
9.1679201e+00 1.2442800e+00 0.0000000e+00 
1.0000000e+01 1.5000000e+00 0.0000000e+00 
8.5000000e+00 0.0000000e+00 0.0000000e+00 
9.9187202e+00 1.5001400e+00 0.0000000e+00 
9.3847904e+00 1.3867500e+00 0.0000000e+00 
9.8044004e+00 1.5047500e+00 0.0000000e+00 
8.6287603e+00 6.5904301e-01 0.0000000e+00 
9.5450497e+00 1.4524500e+00 0.0000000e+00 
9.2358704e+00 1.3168499e+00 0.0000000e+00 
8.5254898e+00 4.2105001e-01 0.0000000e+00 
8.4849596e+00 2.5780100e-01 0.0000000e+00 
8.8687496e+00 1.0439600e+00 0.0000000e+00 
8.9374199e+00 1.1185300e+00 0.0000000e+00 
9.7053099e+00 1.5181600e+00 0.0000000e+00 
8.7996702e+00 9.7555703e-01 0.0000000e+00 
8.4502602e+00 8.9625701e-02 0.0000000e+00 
9.0043802e+00 1.1929899e+00 0.0000000e+00 
[...]
POINT_DATA 5817
FIELD FieldData 2
VELOCITY 3 5817  float
0.0000000e+00 0.0000000e+00 0.0000000e+00 
0.0000000e+00 0.0000000e+00 0.0000000e+00 
1.1394449e+00 3.8662020e-02 0.0000000e+00 
1.1159470e+00 2.0005634e-02 0.0000000e+00 
0.0000000e+00 0.0000000e+00 0.0000000e+00 
8.2307947e-01 -5.6696068e-03 0.0000000e+00 
8.3758819e-01 4.9892515e-03 0.0000000e+00 
1.1125983e+00 2.7982572e-03 0.0000000e+00 
8.2942069e-01 3.6750273e-03 0.0000000e+00 
9.3416435e-01 1.2115384e-02 0.0000000e+00 
0.0000000e+00 0.0000000e+00 0.0000000e+00 
9.1244316e-01 3.0258386e-03 0.0000000e+00 
8.2706392e-01 2.3904923e-04 0.0000000e+00 
1.1128838e+00 -1.6621397e-04 0.0000000e+00 
9.0668952e-01 -9.0593589e-04 0.0000000e+00 
8.9546973e-01 -4.1890116e-03 0.0000000e+00 
8.9777309e-01 -5.7319398e-03 0.0000000e+00 
0.0000000e+00 0.0000000e+00 0.0000000e+00 
8.9273793e-01 -2.9398210e-03 0.0000000e+00 
8.2459652e-01 -3.2296602e-03 0.0000000e+00 
9.0234661e-01 -4.6925130e-03 0.0000000e+00 
9.0217751e-01 -4.1934848e-03 0.0000000e+00 
1.1097111e+00 -1.8698322e-03 0.0000000e+00 
8.8935727e-01 -6.4059435e-03 0.0000000e+00 
9.0935493e-01 -5.3593330e-03 0.0000000e+00 
0.0000000e+00 0.0000000e+00 0.0000000e+00 
8.9753181e-01 -8.0932071e-03 0.0000000e+00 
8.9782578e-01 -7.0355446e-03 0.0000000e+00 
8.8632160e-01 -9.4278129e-03 0.0000000e+00 
8.2307774e-01 -5.6986585e-03 0.0000000e+00 
9.0777725e-01 -6.3446998e-03 0.0000000e+00 
1.1032845e+00 -3.5307601e-03 0.0000000e+00 
8.9342743e-01 -1.0869845e-02 0.0000000e+00 
9.0171498e-01 -1.0591130e-02 0.0000000e+00 
9.0960360e-01 -7.5776139e-03 0.0000000e+00 
0.0000000e+00 0.0000000e+00 0.0000000e+00 
8.9787608e-01 -1.2974119e-02 0.0000000e+00 
8.9225233e-01 -8.9088250e-03 0.0000000e+00 
8.8314617e-01 -1.2386193e-02 0.0000000e+00 
9.0551460e-01 -1.1361516e-02 0.0000000e+00 
8.2312590e-01 -8.0503682e-03 0.0000000e+00 
8.8927203e-01 -1.3863634e-02 0.0000000e+00 
1.0933619e+00 -5.4059830e-03 0.0000000e+00 
8.9400297e-01 -1.6015273e-02 0.0000000e+00 
9.0368485e-01 -1.4251918e-02 0.0000000e+00 
8.7961286e-01 -1.5160776e-02 0.0000000e+00 
0.0000000e+00 0.0000000e+00 0.0000000e+00 
9.1134340e-01 -1.0758581e-02 0.0000000e+00 
8.8542974e-01 -1.0433296e-02 0.0000000e+00 
8.8498890e-01 -1.6852178e-02 0.0000000e+00 
9.0003502e-01 -1.7536744e-02 0.0000000e+00 
8.2543236e-01 -1.0680202e-02 0.0000000e+00 
9.0825957e-01 -1.4709326e-02 0.0000000e+00 
8.9076793e-01 -1.9731037e-02 0.0000000e+00 
1.0792781e+00 -7.6953825e-03 0.0000000e+00 
8.9680833e-01 -2.1172082e-02 0.0000000e+00 
9.0560830e-01 -1.8385079e-02 0.0000000e+00 
8.7546921e-01 -1.7863791e-02 0.0000000e+00 
8.8011175e-01 -2.0144666e-02 0.0000000e+00 
8.7748659e-01 -1.1886091e-02 0.0000000e+00 
9.1214687e-01 -1.5040737e-02 0.0000000e+00 
9.1426837e-01 -1.2596306e-02 0.0000000e+00 
0.0000000e+00 0.0000000e+00 0.0000000e+00 
9.0285450e-01 -2.2126202e-02 0.0000000e+00 
8.3072865e-01 -1.3925919e-02 0.0000000e+00 
8.8588566e-01 -2.4054470e-02 0.0000000e+00 
9.0985131e-01 -1.8656060e-02 0.0000000e+00 
8.9328712e-01 -2.5618609e-02 0.0000000e+00 
1.0603173e+00 -1.0489832e-02 0.0000000e+00 
9.0755737e-01 -2.2427550e-02 0.0000000e+00 
8.7046492e-01 -2.0505084e-02 0.0000000e+00 
8.9990348e-01 -2.6188346e-02 0.0000000e+00 
8.8025641e-01 -2.5602728e-02 0.0000000e+00 
8.7463921e-01 -2.3102421e-02 0.0000000e+00 
8.6880749e-01 -1.3531661e-02 0.0000000e+00 
9.1401291e-01 -1.8509015e-02 0.0000000e+00 
9.1718727e-01 -1.4537224e-02 0.0000000e+00 
0.0000000e+00 0.0000000e+00 0.0000000e+00 
8.3918124e-01 -1.7691862e-02 0.0000000e+00 
9.0501678e-01 -2.6532864e-02 0.0000000e+00 
9.1216004e-01 -2.2370080e-02 0.0000000e+00 
8.8949412e-01 -3.0167449e-02 0.0000000e+00 
8.8277596e-01 -2.9971646e-02 0.0000000e+00 
8.9676279e-01 -3.0507462e-02 0.0000000e+00 
8.7673146e-01 -2.9108943e-02 0.0000000e+00 
1.0357581e+00 -1.3179699e-02 0.0000000e+00 
9.1822255e-01 -1.8000653e-02 0.0000000e+00 
9.0998566e-01 -2.6549030e-02 0.0000000e+00 
8.7035203e-01 -2.7425228e-02 0.0000000e+00 
9.0224999e-01 -3.0909812e-02 0.0000000e+00 
8.6410785e-01 -2.4815140e-02 0.0000000e+00 
8.6013234e-01 -1.5858237e-02 0.0000000e+00 
9.1664022e-01 -2.1959024e-02 0.0000000e+00 
9.2072409e-01 -1.6224593e-02 0.0000000e+00 
0.0000000e+00 0.0000000e+00 0.0000000e+00 
8.9336252e-01 -3.5083205e-02 0.0000000e+00 
8.5039753e-01 -2.1150183e-02 0.0000000e+00 
9.0756559e-01 -3.0996777e-02 0.0000000e+00 
8.8494468e-01 -3.5640169e-02 0.0000000e+00 
9.1480958e-01 -2.6215155e-02 0.0000000e+00 
8.7878948e-01 -3.4674350e-02 0.0000000e+00 
8.9922839e-01 -3.5556793e-02 0.0000000e+00 
8.7247026e-01 -3.3800866e-02 0.0000000e+00 
9.2065859e-01 -2.0580802e-02 0.0000000e+00 
1.0079502e+00 -1.4722367e-02 0.0000000e+00 
9.1274309e-01 -3.0728552e-02 0.0000000e+00 
8.6654145e-01 -3.2284062e-02 0.0000000e+00 
9.0490854e-01 -3.5726044e-02 0.0000000e+00 
8.5060799e-01 -1.8679457e-02 0.0000000e+00 
8.5704648e-01 -2.9560430e-02 0.0000000e+00 
9.1954231e-01 -2.5534404e-02 0.0000000e+00 
9.2449945e-01 -1.7780751e-02 0.0000000e+00 
0.0000000e+00 0.0000000e+00 0.0000000e+00 
8.8767141e-01 -4.1463129e-02 0.0000000e+00 
8.8128728e-01 -4.0981580e-02 0.0000000e+00 
8.6082739e-01 -2.3112526e-02 0.0000000e+00 
9.1044468e-01 -3.5519712e-02 0.0000000e+00 
8.7471342e-01 -3.9882131e-02 0.0000000e+00 
9.1781539e-01 -3.0129371e-02 0.0000000e+00 
8.9415884e-01 -4.1792873e-02 0.0000000e+00 
9.0197337e-01 -4.0755752e-02 0.0000000e+00 
8.6816388e-01 -3.8915295e-02 0.0000000e+00 
9.2401934e-01 -2.4056779e-02 0.0000000e+00 
9.7202682e-01 -1.8131420e-02 0.0000000e+00 
8.4838921e-01 -3.0392068e-02 0.0000000e+00 
8.6177820e-01 -3.7043646e-02 0.0000000e+00 
9.1586882e-01 -3.4978621e-02 0.0000000e+00 
9.0790552e-01 -4.0605314e-02 0.0000000e+00 
8.4226382e-01 -2.3683213e-02 0.0000000e+00 
9.2275065e-01 -2.9185710e-02 0.0000000e+00 
8.8398337e-01 -4.6885546e-02 0.0000000e+00 
8.5502946e-01 -3.5239883e-02 0.0000000e+00 
9.2866123e-01 -1.9195985e-02 0.0000000e+00 
0.0000000e+00 0.0000000e+00 0.0000000e+00 
8.7711996e-01 -4.6301901e-02 0.0000000e+00 
8.9073259e-01 -4.7311097e-02 0.0000000e+00 
8.9717352e-01 -4.6481129e-02 0.0000000e+00 
8.7025034e-01 -4.4986792e-02 0.0000000e+00 
8.7449294e-01 -3.0139057e-02 0.0000000e+00 
9.1369027e-01 -4.0115166e-02 0.0000000e+00 
9.2115164e-01 -3.4101605e-02 0.0000000e+00 
9.2865235e-01 -2.3170136e-02 0.0000000e+00 
9.0403491e-01 -4.6207275e-02 0.0000000e+00 
8.6316007e-01 -4.4037782e-02 0.0000000e+00 
8.4240746e-01 -3.2907590e-02 0.0000000e+00 
9.4936430e-01 -3.1838607e-02 0.0000000e+00 
9.2758173e-01 -2.7923383e-02 0.0000000e+00 
9.1019219e-01 -4.5295287e-02 0.0000000e+00 
8.5648143e-01 -4.2250585e-02 0.0000000e+00 
9.1933829e-01 -3.9286613e-02 0.0000000e+00 
8.3242941e-01 -2.4701640e-02 0.0000000e+00 
8.8784111e-01 -5.2885994e-02 0.0000000e+00 
8.8007480e-01 -5.2689731e-02 0.0000000e+00 
9.2632163e-01 -3.2896563e-02 0.0000000e+00 
8.7283796e-01 -5.1658574e-02 0.0000000e+00 
8.9475620e-01 -5.2659400e-02 0.0000000e+00 
8.5158032e-01 -4.0630646e-02 0.0000000e+00 
9.3306518e-01 -2.0487493e-02 0.0000000e+00 
0.0000000e+00 0.0000000e+00 0.0000000e+00 
8.6555350e-01 -5.0350986e-02 0.0000000e+00 
9.0148693e-01 -5.2160557e-02 0.0000000e+00 
9.1729742e-01 -4.4763580e-02 0.0000000e+00 
8.7087387e-01 -2.6931768e-02 0.0000000e+00 
9.2484516e-01 -3.8127132e-02 0.0000000e+00 
9.3253350e-01 -2.5730539e-02 0.0000000e+00 
9.0799642e-01 -5.1216897e-02 0.0000000e+00 
8.5787153e-01 -4.9030248e-02 0.0000000e+00 
8.3844918e-01 -3.9461769e-02 0.0000000e+00 
9.3138456e-01 -3.1386010e-02 0.0000000e+00 
9.1428679e-01 -5.0016765e-02 0.0000000e+00 
8.5073656e-01 -4.6812400e-02 0.0000000e+00 
8.8421148e-01 -5.9059095e-02 0.0000000e+00 
9.2317313e-01 -4.3636139e-02 0.0000000e+00 
8.9158994e-01 -5.8962807e-02 0.0000000e+00 
8.7567198e-01 -5.8771096e-02 0.0000000e+00 
9.5759714e-01 -2.4650056e-02 0.0000000e+00 
8.6804402e-01 -5.7769295e-02 0.0000000e+00 
8.9864218e-01 -5.8431700e-02 0.0000000e+00 
9.3020552e-01 -3.6665581e-02 0.0000000e+00 
8.1700337e-01 -3.6299285e-02 0.0000000e+00 
8.4678245e-01 -4.3220531e-02 0.0000000e+00 
8.6069715e-01 -5.6825332e-02 0.0000000e+00 
9.3779814e-01 -2.1708054e-02 0.0000000e+00 
0.0000000e+00 0.0000000e+00 0.0000000e+00 
9.0570098e-01 -5.7485268e-02 0.0000000e+00 
9.2128861e-01 -4.9446426e-02 0.0000000e+00 
9.3638366e-01 -2.9578283e-02 0.0000000e+00 
9.2884713e-01 -4.2191841e-02 0.0000000e+00 
9.1227561e-01 -5.6223430e-02 0.0000000e+00 
8.5244852e-01 -5.5726230e-02 0.0000000e+00 
8.3619821e-01 -4.0704347e-02 0.0000000e+00 
8.4116387e-01 -3.9317604e-02 0.0000000e+00 
9.3549216e-01 -3.4939658e-02 0.0000000e+00 
8.8019782e-01 -6.5619513e-02 0.0000000e+00 
8.8807487e-01 -6.5620445e-02 0.0000000e+00 
9.1873062e-01 -5.4581992e-02 0.0000000e+00 
8.4321129e-01 -5.3377923e-02 0.0000000e+00 
8.7114000e-01 -6.5195128e-02 0.0000000e+00 
8.9571971e-01 -6.5156333e-02 0.0000000e+00 
7.3203236e-01 -8.1237387e-03 0.0000000e+00 
9.2731994e-01 -4.8010215e-02 0.0000000e+00 
8.6398101e-01 -6.4546794e-02 0.0000000e+00 
9.0310210e-01 -6.4128980e-02 0.0000000e+00 
9.3443739e-01 -4.0481791e-02 0.0000000e+00 
8.2138366e-01 -3.3461627e-02 0.0000000e+00 
9.1310883e-01 -5.1650833e-02 0.0000000e+00 
8.3592039e-01 -5.0962638e-02 0.0000000e+00 
8.5571939e-01 -6.3079201e-02 0.0000000e+00 
9.1023964e-01 -6.2863126e-02 0.0000000e+00 
9.4266838e-01 -2.2729760e-02 0.0000000e+00 
0.0000000e+00 0.0000000e+00 0.0000000e+00 
9.4182259e-01 -2.6889883e-02 0.0000000e+00 
9.2561477e-01 -5.4124460e-02 0.0000000e+00 
9.4055194e-01 -3.2907344e-02 0.0000000e+00 
8.4741753e-01 -6.0938492e-02 0.0000000e+00 
9.3321502e-01 -4.6288148e-02 0.0000000e+00 
9.1705978e-01 -6.1139904e-02 0.0000000e+00 
8.3157480e-01 -4.7512032e-02 0.0000000e+00 
8.2292587e-01 -2.7301213e-02 0.0000000e+00 
8.8426524e-01 -7.2701596e-02 0.0000000e+00 
8.9256757e-01 -7.2125845e-02 0.0000000e+00 
9.3980098e-01 -3.8489640e-02 0.0000000e+00 
8.7602389e-01 -7.3149912e-02 0.0000000e+00 
8.1788391e-01 -3.7685111e-02 0.0000000e+00 
9.0046781e-01 -7.1202591e-02 0.0000000e+00 
8.6747557e-01 -7.2640099e-02 0.0000000e+00 
9.2364931e-01 -5.9208997e-02 0.0000000e+00 
8.3839506e-01 -5.8484185e-02 0.0000000e+00 
9.3186444e-01 -5.2386303e-02 0.0000000e+00 
8.5842621e-01 -7.1544081e-02 0.0000000e+00 
9.0785962e-01 -6.9844328e-02 0.0000000e+00 
9.3889487e-01 -4.4297792e-02 0.0000000e+00 
8.1410056e-01 -4.3709774e-02 0.0000000e+00 
9.4559360e-01 -3.0648414e-02 0.0000000e+00 
8.4940672e-01 -6.9938309e-02 0.0000000e+00 
9.1578197e-01 -3.0063855e-02 0.0000000e+00 
9.1514146e-01 -6.8027638e-02 0.0000000e+00 
8.2935834e-01 -5.5010993e-02 0.0000000e+00 
9.4782603e-01 -2.3736861e-02 0.0000000e+00 
0.0000000e+00 0.0000000e+00 0.0000000e+00 
9.4509232e-01 -3.6246885e-02 0.0000000e+00 
9.3035483e-01 -5.8795542e-02 0.0000000e+00 
8.4068221e-01 -6.7967936e-02 0.0000000e+00 
9.2213941e-01 -6.6046089e-02 0.0000000e+00 
9.3785715e-01 -5.0356839e-02 0.0000000e+00 
8.8906580e-01 -7.9665244e-02 0.0000000e+00 
8.8037246e-01 -8.0329053e-02 0.0000000e+00 
8.2404900e-01 -5.0628137e-02 0.0000000e+00 
8.9745313e-01 -7.8701831e-02 0.0000000e+00 
8.7131524e-01 -8.0636650e-02 0.0000000e+00 
8.0003405e-01 -3.6581811e-02 0.0000000e+00 
9.2783308e-01 -6.3634932e-02 0.0000000e+00 
9.4446015e-01 -4.2056803e-02 0.0000000e+00 
8.6225474e-01 -8.0037311e-02 0.0000000e+00 
9.0555286e-01 -7.7338085e-02 0.0000000e+00 
8.3165592e-01 -6.4685926e-02 0.0000000e+00 
8.9425898e-01 -2.0585166e-02 0.0000000e+00 
8.5263324e-01 -7.8799553e-02 0.0000000e+00 
9.1321516e-01 -7.5400792e-02 0.0000000e+00 
9.5054376e-01 -2.8200882e-02 0.0000000e+00 
9.3669486e-01 -5.6709904e-02 0.0000000e+00 
9.4371915e-01 -4.8090838e-02 0.0000000e+00 
8.1080288e-01 -4.5255594e-02 0.0000000e+00 
9.5024693e-01 -3.3787969e-02 0.0000000e+00 
8.2191306e-01 -6.0758475e-02 0.0000000e+00 
9.2051190e-01 -7.3282123e-02 0.0000000e+00 
8.4297168e-01 -7.7138036e-02 0.0000000e+00 
8.7885499e-01 -3.9943021e-02 0.0000000e+00 
0.0000000e+00 0.0000000e+00 0.0000000e+00 
9.5314568e-01 -2.4544440e-02 0.0000000e+00 
9.4987124e-01 -3.9586063e-02 0.0000000e+00 
8.8538837e-01 -8.7767527e-02 0.0000000e+00 
8.3317226e-01 -7.4429214e-02 0.0000000e+00 
8.9437431e-01 -8.6705551e-02 0.0000000e+00 
9.2758101e-01 -7.0758648e-02 0.0000000e+00 
8.7633407e-01 -8.8534273e-02 0.0000000e+00 
9.3418491e-01 -6.5170959e-02 0.0000000e+00 
9.4287473e-01 -5.4399226e-02 0.0000000e+00 
8.6666644e-01 -8.8403098e-02 0.0000000e+00 
9.0280557e-01 -8.5222892e-02 0.0000000e+00 
8.1456673e-01 -5.6598600e-02 0.0000000e+00 
7.8404224e-01 -3.4077324e-02 0.0000000e+00 
8.5684216e-01 -8.7928690e-02 0.0000000e+00 
9.1102111e-01 -8.3198421e-02 0.0000000e+00 
9.0581381e-01 -1.7372979e-02 0.0000000e+00 
9.4938982e-01 -4.5595039e-02 0.0000000e+00 
9.5461011e-01 -3.0358931e-02 0.0000000e+00 
8.2365352e-01 -7.0737340e-02 0.0000000e+00 
8.4632874e-01 -8.6887173e-02 0.0000000e+00 
9.1894776e-01 -8.0975465e-02 0.0000000e+00 
9.4190562e-01 -6.1037384e-02 0.0000000e+00 
9.4882154e-01 -5.1833961e-02 0.0000000e+00 
9.5512187e-01 -3.6905337e-02 0.0000000e+00 
8.0522043e-01 -5.2110769e-02 0.0000000e+00 
9.2637593e-01 -7.8291528e-02 0.0000000e+00 
8.3597016e-01 -8.5017957e-02 0.0000000e+00 
8.1322825e-01 -6.5912999e-02 0.0000000e+00 
8.5287023e-01 -2.1195980e-02 0.0000000e+00 
8.8149762e-01 -9.6411832e-02 0.0000000e+00 
8.9097691e-01 -9.5240645e-02 0.0000000e+00 
9.5862401e-01 -2.5315773e-02 0.0000000e+00 
0.0000000e+00 0.0000000e+00 0.0000000e+00 
8.7149131e-01 -9.7094186e-02 0.0000000e+00 
9.0016782e-01 -9.3669608e-02 0.0000000e+00 
9.5486844e-01 -4.2896084e-02 0.0000000e+00 
8.2499075e-01 -8.2001008e-02 0.0000000e+00 
8.6144722e-01 -9.7035751e-02 0.0000000e+00 
9.3363899e-01 -7.5441435e-02 0.0000000e+00 
9.0888381e-01 -9.1478854e-02 0.0000000e+00 
9.4816303e-01 -5.8379922e-02 0.0000000e+00 
7.6575422e-01 -4.6472896e-02 0.0000000e+00 
8.5092252e-01 -9.6619993e-02 0.0000000e+00 
8.0463803e-01 -6.0403127e-02 0.0000000e+00 
9.1705287e-01 -8.9094236e-02 0.0000000e+00 
9.4077587e-01 -7.0170142e-02 0.0000000e+00 
9.5454973e-01 -4.9081139e-02 0.0000000e+00 
9.5975208e-01 -4.0231273e-03 0.0000000e+00 
8.1447649e-01 -7.8319408e-02 0.0000000e+00 
9.6000260e-01 -3.3512361e-02 0.0000000e+00 
9.2495656e-01 -8.6212076e-02 0.0000000e+00 
8.3951223e-01 -9.5423684e-02 0.0000000e+00 
8.0184680e-01 -5.2321043e-02 0.0000000e+00 
9.6022916e-01 -4.0013351e-02 0.0000000e+00 
8.2849616e-01 -9.2972465e-02 0.0000000e+00 
9.5417511e-01 -5.5528957e-02 0.0000000e+00 
9.4742727e-01 -6.6779263e-02 0.0000000e+00 
9.3261284e-01 -8.3269738e-02 0.0000000e+00 
8.8754469e-01 -1.0438517e-01 0.0000000e+00 
8.0268306e-01 -7.3741399e-02 0.0000000e+00 
7.6858932e-01 -3.6425777e-02 0.0000000e+00 
8.7729710e-01 -1.0569442e-01 0.0000000e+00 
8.9706814e-01 -1.0263322e-01 0.0000000e+00 
9.0640289e-01 -1.0029953e-01 0.0000000e+00 
8.6664444e-01 -1.0648052e-01 0.0000000e+00 
9.6417487e-01 -2.5858529e-02 0.0000000e+00 
0.0000000e+00 0.0000000e+00 0.0000000e+00 
8.5550523e-01 -1.0627561e-01 0.0000000e+00 
9.6013993e-01 -4.6152942e-02 0.0000000e+00 
9.1537416e-01 -9.7778618e-02 0.0000000e+00 
8.1658334e-01 -8.9923523e-02 0.0000000e+00 
6.9229895e-01 1.0570819e-02 0.0000000e+00 
9.3992114e-01 -7.9535566e-02 0.0000000e+00 
9.5374411e-01 -6.2296700e-02 0.0000000e+00 
7.7407008e-01 -4.4273231e-02 0.0000000e+00 
8.4420705e-01 -1.0572860e-01 0.0000000e+00 
9.2365426e-01 -9.4679236e-02 0.0000000e+00 
9.6517622e-01 -3.1062653e-02 0.0000000e+00 
7.8994012e-01 -6.8213753e-02 0.0000000e+00 
8.8500273e-01 -2.6938986e-02 0.0000000e+00 
9.6001202e-01 -5.2496485e-02 0.0000000e+00 
8.0490541e-01 -8.5284643e-02 0.0000000e+00 
8.3184779e-01 -1.0450491e-01 0.0000000e+00 
9.6531177e-01 -3.6966678e-02 0.0000000e+00 
9.4675642e-01 -7.6422244e-02 0.0000000e+00 
9.3176442e-01 -9.1500826e-02 0.0000000e+00 
8.8363856e-01 -1.1407194e-01 0.0000000e+00 
8.9410502e-01 -1.1230894e-01 0.0000000e+00 
7.8616017e-01 -6.0929213e-02 0.0000000e+00 
9.6543592e-01 -4.3038815e-02 0.0000000e+00 
8.7257135e-01 -1.1543252e-01 0.0000000e+00 
8.1982929e-01 -1.0211536e-01 0.0000000e+00 
9.0397465e-01 -1.0975802e-01 0.0000000e+00 
9.5984524e-01 -5.9111129e-02 0.0000000e+00 
9.3932515e-01 -8.7869085e-02 0.0000000e+00 
7.3610735e-01 -3.4395862e-02 0.0000000e+00 
7.9278535e-01 -7.9573616e-02 0.0000000e+00 
8.6101484e-01 -1.1633796e-01 0.0000000e+00 
9.1324115e-01 -1.0693719e-01 0.0000000e+00 
9.5324808e-01 -7.2654873e-02 0.0000000e+00 
8.4944862e-01 -1.1631748e-01 0.0000000e+00 
9.6991271e-01 -2.6417937e-02 0.0000000e+00 
0.0000000e+00 0.0000000e+00 0.0000000e+00 
9.2207146e-01 -1.0355215e-01 0.0000000e+00 
9.6553868e-01 -4.9304835e-02 0.0000000e+00 
8.0699116e-01 -9.8611817e-02 0.0000000e+00 
7.8207022e-01 -8.4153814e-03 0.0000000e+00 
9.4665706e-01 -8.4243611e-02 0.0000000e+00 
8.3727461e-01 -1.1589161e-01 0.0000000e+00 
9.7053885e-01 -3.2909729e-02 0.0000000e+00 
7.6896220e-01 -5.2926075e-02 0.0000000e+00 
9.3070167e-01 -1.0022971e-01 0.0000000e+00 
7.7870876e-01 -7.3111288e-02 0.0000000e+00 
8.4494650e-01 -2.5298392e-02 0.0000000e+00 
9.5949978e-01 -6.8897203e-02 0.0000000e+00 
9.6562290e-01 -5.5801690e-02 0.0000000e+00 
7.9378837e-01 -9.4148092e-02 0.0000000e+00 
8.2375407e-01 -1.1440860e-01 0.0000000e+00 
9.3862605e-01 -9.6266091e-02 0.0000000e+00 
9.7081393e-01 -3.9809030e-02 0.0000000e+00 
9.5341653e-01 -8.0271207e-02 0.0000000e+00 
8.9086479e-01 -1.2234113e-01 0.0000000e+00 
8.7954426e-01 -1.2454835e-01 0.0000000e+00 
9.0124971e-01 -1.1972696e-01 0.0000000e+00 
7.7267444e-01 -6.4578600e-02 0.0000000e+00 
8.6795759e-01 -1.2611677e-01 0.0000000e+00 
9.1143656e-01 -1.1681399e-01 0.0000000e+00 
9.7110420e-01 -4.5998193e-02 0.0000000e+00 
8.1082916e-01 -1.1167264e-01 0.0000000e+00 
9.4635683e-01 -9.2464633e-02 0.0000000e+00 
9.6569145e-01 -6.2597066e-02 0.0000000e+00 
8.5557932e-01 -1.2713282e-01 0.0000000e+00 
9.2077309e-01 -1.1313095e-01 0.0000000e+00 
7.1938038e-01 -4.7685459e-02 0.0000000e+00 
7.8091520e-01 -8.9067660e-02 0.0000000e+00 
9.5993102e-01 -7.6268926e-02 0.0000000e+00 
8.4279066e-01 -1.2712550e-01 0.0000000e+00 
9.2978823e-01 -1.0917899e-01 0.0000000e+00 
9.7559232e-01 -2.6810218e-02 0.0000000e+00 
0.0000000e+00 0.0000000e+00 0.0000000e+00 
7.6877701e-01 -8.1139505e-02 0.0000000e+00 
9.7139078e-01 -5.2381199e-02 0.0000000e+00 
8.7447071e-01 -1.9284965e-02 0.0000000e+00 
7.9699326e-01 -1.0806784e-01 0.0000000e+00 
9.5347124e-01 -8.8186726e-02 0.0000000e+00 
8.2957810e-01 -1.2669566e-01 0.0000000e+00 
9.3821466e-01 -1.0523975e-01 0.0000000e+00 
9.7572953e-01 -3.6426824e-02 0.0000000e+00 
7.6543051e-01 -5.5013966e-02 0.0000000e+00 
7.4971348e-01 -4.7948945e-02 0.0000000e+00 
9.6600205e-01 -7.2027639e-02 0.0000000e+00 
9.7167838e-01 -5.9017912e-02 0.0000000e+00 
7.8307718e-01 -1.0337426e-01 0.0000000e+00 
9.4615334e-01 -1.0078457e-01 0.0000000e+00 
8.1490403e-01 -1.2506010e-01 0.0000000e+00 
9.7614580e-01 -4.2552371e-02 0.0000000e+00 
8.8726562e-01 -1.3335195e-01 0.0000000e+00 
8.9876056e-01 -1.3059619e-01 0.0000000e+00 
9.0944612e-01 -1.2697230e-01 0.0000000e+00 
8.7547815e-01 -1.3591677e-01 0.0000000e+00 
9.6028560e-01 -8.3983742e-02 0.0000000e+00 
8.6304802e-01 -1.3760617e-01 0.0000000e+00 
9.1937721e-01 -1.2331160e-01 0.0000000e+00 
7.5399220e-01 -7.5677805e-02 0.0000000e+00 
8.4976739e-01 -1.3840325e-01 0.0000000e+00 
8.0105817e-01 -1.2241601e-01 0.0000000e+00 
9.7658914e-01 -4.8816182e-02 0.0000000e+00 
9.2903233e-01 -1.1903620e-01 0.0000000e+00 
6.1777753e-01 -1.9244736e-03 0.0000000e+00 
7.3461664e-01 -4.3936770e-02 0.0000000e+00 
9.5374042e-01 -9.6577905e-02 0.0000000e+00 
9.7198570e-01 -6.5922514e-02 0.0000000e+00 
7.6877367e-01 -9.7441927e-02 0.0000000e+00 
8.3596426e-01 -1.3895535e-01 0.0000000e+00 