# vtk DataFile Version 4.0
vtk output
ASCII
DATASET UNSTRUCTURED_GRID
POINTS 5817 float
1.0000000e+01 0.0000000e+00 0.0000000e+00 
9.8999996e+00 0.0000000e+00 0.0000000e+00 
1.0000000e+01 1.0000000e-01 0.0000000e+00 
9.8583298e+00 8.8835500e-02 0.0000000e+00 
9.8000002e+00 0.0000000e+00 0.0000000e+00 
1.0000000e+01 2.0000000e-01 0.0000000e+00 
9.8999996e+00 1.7320500e-01 0.0000000e+00 
9.7500000e+00 8.6602502e-02 0.0000000e+00 
9.8000002e+00 1.7320500e-01 0.0000000e+00 
1.0000000e+01 3.0000001e-01 0.0000000e+00 
9.6999998e+00 0.0000000e+00 0.0000000e+00 
9.8583298e+00 2.6650599e-01 0.0000000e+00 
9.6999998e+00 1.7320500e-01 0.0000000e+00 
9.6499996e+00 8.6602502e-02 0.0000000e+00 
9.7500000e+00 2.5980800e-01 0.0000000e+00 
9.9033298e+00 3.4808499e-01 0.0000000e+00 
1.0000000e+01 4.0000001e-01 0.0000000e+00 
9.6000004e+00 0.0000000e+00 0.0000000e+00 
9.8000002e+00 3.4641001e-01 0.0000000e+00 
9.6000004e+00 1.7320500e-01 0.0000000e+00 
9.6499996e+00 2.5980800e-01 0.0000000e+00 
9.8583298e+00 4.2751101e-01 0.0000000e+00 
9.5500002e+00 8.6602502e-02 0.0000000e+00 
9.6999998e+00 3.4641001e-01 0.0000000e+00 
1.0000000e+01 5.0000000e-01 0.0000000e+00 
9.5000000e+00 0.0000000e+00 0.0000000e+00 
9.7500000e+00 4.3301299e-01 0.0000000e+00 
9.5500002e+00 2.5980800e-01 0.0000000e+00 
9.6000004e+00 3.4641001e-01 0.0000000e+00 
9.5000000e+00 1.7320500e-01 0.0000000e+00 
9.8999996e+00 5.1961499e-01 0.0000000e+00 
9.4499998e+00 8.6602502e-02 0.0000000e+00 
9.6499996e+00 4.3301299e-01 0.0000000e+00 
9.8000002e+00 5.1961499e-01 0.0000000e+00 
1.0000000e+01 6.0000002e-01 0.0000000e+00 
9.3999996e+00 0.0000000e+00 0.0000000e+00 
9.6999998e+00 5.1961499e-01 0.0000000e+00 
9.4499998e+00 2.5980800e-01 0.0000000e+00 
9.5000000e+00 3.4641001e-01 0.0000000e+00 
9.8893099e+00 6.1410201e-01 0.0000000e+00 
9.3999996e+00 1.7320500e-01 0.0000000e+00 
9.5500002e+00 4.3301299e-01 0.0000000e+00 
9.3500004e+00 8.6602502e-02 0.0000000e+00 
9.6000004e+00 5.1961499e-01 0.0000000e+00 
9.7873602e+00 6.3313198e-01 0.0000000e+00 
9.3999996e+00 3.4641001e-01 0.0000000e+00 
9.3000002e+00 0.0000000e+00 0.0000000e+00 
1.0000000e+01 6.9999999e-01 0.0000000e+00 
9.3500004e+00 2.5980800e-01 0.0000000e+00 
9.4499998e+00 4.3301299e-01 0.0000000e+00 
9.6772203e+00 6.2931901e-01 0.0000000e+00 
9.3000002e+00 1.7320500e-01 0.0000000e+00 
9.8485203e+00 7.1224803e-01 0.0000000e+00 
9.5041599e+00 5.3742099e-01 0.0000000e+00 
9.2500000e+00 8.6602502e-02 0.0000000e+00 
9.5762100e+00 6.3882500e-01 0.0000000e+00 
9.7494297e+00 7.2565800e-01 0.0000000e+00 
9.3000002e+00 3.4641001e-01 0.0000000e+00 
9.3420296e+00 4.3454701e-01 0.0000000e+00 
9.2500000e+00 2.5980800e-01 0.0000000e+00 
9.9096899e+00 7.9136300e-01 0.0000000e+00 
1.0000000e+01 8.0000001e-01 0.0000000e+00 
9.1999998e+00 0.0000000e+00 0.0000000e+00 
9.6503296e+00 7.3906797e-01 0.0000000e+00 
9.1999998e+00 1.7320500e-01 0.0000000e+00 
9.3813105e+00 5.4442602e-01 0.0000000e+00 
9.8105898e+00 8.0477297e-01 0.0000000e+00 
9.4674196e+00 6.5563202e-01 0.0000000e+00 
9.1499996e+00 8.6602502e-02 0.0000000e+00 
9.7114897e+00 8.1818300e-01 0.0000000e+00 
9.1999998e+00 3.4641001e-01 0.0000000e+00 
9.5512304e+00 7.5247800e-01 0.0000000e+00 
9.2865801e+00 5.0924700e-01 0.0000000e+00 
9.2342796e+00 4.2777699e-01 0.0000000e+00 
9.1499996e+00 2.5980800e-01 0.0000000e+00 
9.8717499e+00 8.8388801e-01 0.0000000e+00 
1.0000000e+01 8.9999998e-01 0.0000000e+00 
9.1000004e+00 0.0000000e+00 0.0000000e+00 
9.1000004e+00 1.7320500e-01 0.0000000e+00 
9.6124001e+00 8.3159399e-01 0.0000000e+00 
9.7726603e+00 8.9729899e-01 0.0000000e+00 
9.3619204e+00 6.7122602e-01 0.0000000e+00 
9.2737198e+00 5.9348202e-01 0.0000000e+00 
9.4521399e+00 7.6588798e-01 0.0000000e+00 
9.2042999e+00 5.2308202e-01 0.0000000e+00 
9.0500002e+00 8.6602502e-02 0.0000000e+00 
9.9329100e+00 9.6300399e-01 0.0000000e+00 
9.6735601e+00 9.1070902e-01 0.0000000e+00 
9.1368198e+00 4.4975999e-01 0.0000000e+00 
9.5132999e+00 8.4500402e-01 0.0000000e+00 
9.0923996e+00 3.6564499e-01 0.0000000e+00 
9.0500002e+00 2.5980800e-01 0.0000000e+00 
9.8338203e+00 9.7641402e-01 0.0000000e+00 
1.0000000e+01 1.0000000e+00 0.0000000e+00 
9.0000000e+00 0.0000000e+00 0.0000000e+00 
9.3530397e+00 7.7929902e-01 0.0000000e+00 
9.0000000e+00 1.7320500e-01 0.0000000e+00 
9.5744600e+00 9.2411900e-01 0.0000000e+00 
9.2438698e+00 6.8863100e-01 0.0000000e+00 
9.7347202e+00 9.8982400e-01 0.0000000e+00 
9.1771202e+00 6.1455202e-01 0.0000000e+00 
9.4141998e+00 8.5841399e-01 0.0000000e+00 
9.1068001e+00 5.4364800e-01 0.0000000e+00 
9.9044905e+00 1.0417700e+00 0.0000000e+00 
8.9499998e+00 8.6602502e-02 0.0000000e+00 
9.6356201e+00 1.0032300e+00 0.0000000e+00 
9.0417004e+00 4.7562101e-01 0.0000000e+00 
9.4753599e+00 9.3752903e-01 0.0000000e+00 
8.9499998e+00 2.5980800e-01 0.0000000e+00 
8.9784098e+00 3.7431899e-01 0.0000000e+00 
9.7958803e+00 1.0689400e+00 0.0000000e+00 
1.0000000e+01 1.1000000e+00 0.0000000e+00 
8.8999996e+00 0.0000000e+00 0.0000000e+00 
9.2132702e+00 7.8782201e-01 0.0000000e+00 
9.1461802e+00 7.1470100e-01 0.0000000e+00 
8.8999996e+00 1.7320500e-01 0.0000000e+00 
9.5365295e+00 1.0166399e+00 0.0000000e+00 
9.0804300e+00 6.3953602e-01 0.0000000e+00 
9.6967897e+00 1.0823500e+00 0.0000000e+00 
9.2791595e+00 8.6298501e-01 0.0000000e+00 
9.3762703e+00 9.5093900e-01 0.0000000e+00 
9.0110798e+00 5.7062602e-01 0.0000000e+00 
9.8643503e+00 1.1422800e+00 0.0000000e+00 
8.8500004e+00 8.6602502e-02 0.0000000e+00 
8.8924799e+00 3.3931199e-01 0.0000000e+00 
8.9442501e+00 4.9722099e-01 0.0000000e+00 
9.5976896e+00 1.0957600e+00 0.0000000e+00 
9.4374304e+00 1.0300500e+00 0.0000000e+00 
8.8500004e+00 2.5980800e-01 0.0000000e+00 
9.7579498e+00 1.1614600e+00 0.0000000e+00 
9.1158600e+00 8.0676198e-01 0.0000000e+00 
8.8780699e+00 4.2282000e-01 0.0000000e+00 
1.0000000e+01 1.2000000e+00 0.0000000e+00 
8.8000002e+00 0.0000000e+00 0.0000000e+00 
9.0481195e+00 7.3358703e-01 0.0000000e+00 
9.1810904e+00 8.8230300e-01 0.0000000e+00 
9.2557602e+00 9.4870597e-01 0.0000000e+00 
8.9842997e+00 6.5732199e-01 0.0000000e+00 
8.8000002e+00 1.7320500e-01 0.0000000e+00 
9.4985905e+00 1.1091700e+00 0.0000000e+00 
9.6588497e+00 1.1748700e+00 0.0000000e+00 
9.9182100e+00 1.2271700e+00 0.0000000e+00 
9.3251104e+00 1.0312500e+00 0.0000000e+00 
8.9135799e+00 5.8930397e-01 0.0000000e+00 
8.8084297e+00 3.5165700e-01 0.0000000e+00 
8.7500000e+00 8.6602502e-02 0.0000000e+00 
9.8191099e+00 1.2405800e+00 0.0000000e+00 
9.3931599e+00 1.1044700e+00 0.0000000e+00 
8.8464403e+00 5.1585698e-01 0.0000000e+00 
9.5597496e+00 1.1882800e+00 0.0000000e+00 
8.7500000e+00 2.5980800e-01 0.0000000e+00 
9.0928097e+00 9.0680802e-01 0.0000000e+00 
9.0184002e+00 8.2787198e-01 0.0000000e+00 
9.7200098e+00 1.2539901e+00 0.0000000e+00 
8.9546299e+00 7.5233299e-01 0.0000000e+00 
9.1608400e+00 9.7992098e-01 0.0000000e+00 
8.7830696e+00 4.4794399e-01 0.0000000e+00 
1.0000000e+01 1.3000000e+00 0.0000000e+00 
8.6999998e+00 0.0000000e+00 0.0000000e+00 
8.8883896e+00 6.7804497e-01 0.0000000e+00 
9.2278700e+00 1.0539600e+00 0.0000000e+00 
9.4606600e+00 1.2017000e+00 0.0000000e+00 
8.6918802e+00 1.9270100e-01 0.0000000e+00 
9.6209202e+00 1.2674000e+00 0.0000000e+00 
9.8934698e+00 1.3188500e+00 0.0000000e+00 
9.2957001e+00 1.1266800e+00 0.0000000e+00 
8.8160496e+00 6.0906202e-01 0.0000000e+00 
8.7121201e+00 3.7280300e-01 0.0000000e+00 
9.7811699e+00 1.3331100e+00 0.0000000e+00 
9.3628101e+00 1.2006400e+00 0.0000000e+00 
8.7522202e+00 5.4296398e-01 0.0000000e+00 
8.9969301e+00 9.2822403e-01 0.0000000e+00 
9.5218201e+00 1.2808100e+00 0.0000000e+00 
9.0639296e+00 1.0024101e+00 0.0000000e+00 
8.9203396e+00 8.4596699e-01 0.0000000e+00 
8.6267500e+00 1.0301200e-01 0.0000000e+00 
8.8568802e+00 7.7282602e-01 0.0000000e+00 
9.1301403e+00 1.0745500e+00 0.0000000e+00 
9.6820803e+00 1.3465199e+00 0.0000000e+00 
8.6461897e+00 3.0343899e-01 0.0000000e+00 
8.6854296e+00 4.6907300e-01 0.0000000e+00 
8.7924404e+00 7.0606899e-01 0.0000000e+00 
1.0000000e+01 1.4000000e+00 0.0000000e+00 
8.6000004e+00 0.0000000e+00 0.0000000e+00 
9.1987696e+00 1.1492000e+00 0.0000000e+00 
9.4227200e+00 1.2942200e+00 0.0000000e+00 
9.8423405e+00 1.4122200e+00 0.0000000e+00 
9.5829802e+00 1.3599300e+00 0.0000000e+00 
9.2651100e+00 1.2213700e+00 0.0000000e+00 
8.7203903e+00 6.3765901e-01 0.0000000e+00 
8.5783300e+00 2.3014100e-01 0.0000000e+00 
8.6154900e+00 3.9815599e-01 0.0000000e+00 
9.7432404e+00 1.4256300e+00 0.0000000e+00 
8.8996496e+00 9.4893199e-01 0.0000000e+00 
8.9663000e+00 1.0233800e+00 0.0000000e+00 
9.3332996e+00 1.2944700e+00 0.0000000e+00 
8.6545601e+00 5.6251901e-01 0.0000000e+00 
8.8232002e+00 8.6615598e-01 0.0000000e+00 
9.0328102e+00 1.0973001e+00 0.0000000e+00 
8.5388403e+00 7.1274497e-02 0.0000000e+00 
9.4838800e+00 1.3733400e+00 0.0000000e+00 
8.7642403e+00 8.0582702e-01 0.0000000e+00 
9.1010399e+00 1.1701699e+00 0.0000000e+00 
9.6441402e+00 1.4390399e+00 0.0000000e+00 
8.5491400e+00 3.2567400e-01 0.0000000e+00 
8.5171900e+00 1.6373500e-01 0.0000000e+00 
8.5903702e+00 4.9454200e-01 0.0000000e+00 
8.6965504e+00 7.3207003e-01 0.0000000e+00 
9.1679201e+00 1.2442800e+00 0.0000000e+00 
1.0000000e+01 1.5000000e+00 0.0000000e+00 
8.5000000e+00 0.0000000e+00 0.0000000e+00 
9.9187202e+00 1.5001400e+00 0.0000000e+00 
9.3847904e+00 1.3867500e+00 0.0000000e+00 
9.8044004e+00 1.5047500e+00 0.0000000e+00 
8.6287603e+00 6.5904301e-01 0.0000000e+00 
9.5450497e+00 1.4524500e+00 0.0000000e+00 
9.2358704e+00 1.3168499e+00 0.0000000e+00 
8.5254898e+00 4.2105001e-01 0.0000000e+00 
8.4849596e+00 2.5780100e-01 0.0000000e+00 
8.8687496e+00 1.0439600e+00 0.0000000e+00 
8.9374199e+00 1.1185300e+00 0.0000000e+00 
9.7053099e+00 1.5181600e+00 0.0000000e+00 
8.7996702e+00 9.7555703e-01 0.0000000e+00 
8.4502602e+00 8.9625701e-02 0.0000000e+00 
9.0043802e+00 1.1929899e+00 0.0000000e+00 
[...]
POINT_DATA 5817
FIELD FieldData 2
VELOCITY 3 5817  float
0.0000000e+00 0.0000000e+00 0.0000000e+00 
0.0000000e+00 0.0000000e+00 0.0000000e+00 
1.1695225e+00 3.5558753e-02 0.0000000e+00 
1.1423420e+00 2.2087121e-02 0.0000000e+00 
0.0000000e+00 0.0000000e+00 0.0000000e+00 
8.3598471e-01 -1.1433396e-02 0.0000000e+00 
8.5434574e-01 3.7288747e-03 0.0000000e+00 
1.1400551e+00 3.5434079e-03 0.0000000e+00 
8.4591901e-01 4.9325610e-03 0.0000000e+00 
9.5025140e-01 1.1649548e-02 0.0000000e+00 
0.0000000e+00 0.0000000e+00 0.0000000e+00 
9.3125945e-01 4.1437177e-03 0.0000000e+00 
8.4364182e-01 1.7289442e-03 0.0000000e+00 
1.1423541e+00 7.4608368e-04 0.0000000e+00 
9.2660105e-01 1.0762985e-03 0.0000000e+00 
9.1145211e-01 -2.9215815e-03 0.0000000e+00 
9.1191393e-01 -4.6633328e-03 0.0000000e+00 
0.0000000e+00 0.0000000e+00 0.0000000e+00 
9.0930855e-01 -5.8320153e-04 0.0000000e+00 
8.4104377e-01 -1.2043638e-03 0.0000000e+00 
9.2424089e-01 -2.1948703e-03 0.0000000e+00 
9.1821843e-01 -1.7118026e-03 0.0000000e+00 
1.1420138e+00 -3.8102065e-04 0.0000000e+00 
9.0661240e-01 -2.8959841e-03 0.0000000e+00 
9.2129242e-01 -2.4927754e-03 0.0000000e+00 
0.0000000e+00 0.0000000e+00 0.0000000e+00 
9.1530198e-01 -4.2814231e-03 0.0000000e+00 
9.2209423e-01 -4.2533353e-03 0.0000000e+00 
9.0415156e-01 -5.2163703e-03 0.0000000e+00 
8.3857268e-01 -2.9500902e-03 0.0000000e+00 
9.2138994e-01 -2.4901167e-03 0.0000000e+00 
1.1396642e+00 -1.2144989e-03 0.0000000e+00 
9.1259480e-01 -6.3256086e-03 0.0000000e+00 
9.1713613e-01 -5.7474906e-03 0.0000000e+00 
9.2205769e-01 -3.0318650e-03 0.0000000e+00 
0.0000000e+00 0.0000000e+00 0.0000000e+00 
9.1470736e-01 -7.4756737e-03 0.0000000e+00 
9.1931707e-01 -6.0237264e-03 0.0000000e+00 
9.0173483e-01 -7.4435333e-03 0.0000000e+00 
9.1974443e-01 -5.8282912e-03 0.0000000e+00 
8.3623630e-01 -4.3660672e-03 0.0000000e+00 
9.0989476e-01 -8.5607991e-03 0.0000000e+00 
1.1355809e+00 -1.9685323e-03 0.0000000e+00 
9.1224355e-01 -9.7249663e-03 0.0000000e+00 
9.1895872e-01 -7.9494053e-03 0.0000000e+00 
8.9937472e-01 -9.5283249e-03 0.0000000e+00 
0.0000000e+00 0.0000000e+00 0.0000000e+00 
9.2343128e-01 -4.6513719e-03 0.0000000e+00 
9.1562438e-01 -7.6217647e-03 0.0000000e+00 
9.0696120e-01 -1.0773744e-02 0.0000000e+00 
9.1670084e-01 -1.0441894e-02 0.0000000e+00 
8.3418143e-01 -5.8009466e-03 0.0000000e+00 
9.2204237e-01 -7.8361463e-03 0.0000000e+00 
9.1014439e-01 -1.2528338e-02 0.0000000e+00 
1.1294600e+00 -2.9707788e-03 0.0000000e+00 
9.1464078e-01 -1.3214049e-02 0.0000000e+00 
9.2061400e-01 -1.0596748e-02 0.0000000e+00 
8.9699018e-01 -1.1643049e-02 0.0000000e+00 
9.0345836e-01 -1.3244507e-02 0.0000000e+00 
9.1099232e-01 -9.0445429e-03 0.0000000e+00 
9.2466527e-01 -7.4875266e-03 0.0000000e+00 
9.2570645e-01 -5.4562828e-03 0.0000000e+00 
0.0000000e+00 0.0000000e+00 0.0000000e+00 
9.1901368e-01 -1.3470512e-02 0.0000000e+00 
8.3307260e-01 -7.6317475e-03 0.0000000e+00 
9.0687686e-01 -1.5915707e-02 0.0000000e+00 
9.2356044e-01 -1.0295353e-02 0.0000000e+00 
9.1243523e-01 -1.6577974e-02 0.0000000e+00 
1.1205498e+00 -4.4929315e-03 0.0000000e+00 
9.2234695e-01 -1.3243889e-02 0.0000000e+00 
8.9446944e-01 -1.3730278e-02 0.0000000e+00 
9.1721964e-01 -1.6564503e-02 0.0000000e+00 
9.0316719e-01 -1.7349226e-02 0.0000000e+00 
8.9902270e-01 -1.5539328e-02 0.0000000e+00 
9.0513492e-01 -1.0331805e-02 0.0000000e+00 
9.2654473e-01 -9.6423598e-03 0.0000000e+00 
9.2825246e-01 -6.2022484e-03 0.0000000e+00 
0.0000000e+00 0.0000000e+00 0.0000000e+00 
8.3391136e-01 -9.9479677e-03 0.0000000e+00 
9.2091656e-01 -1.6423516e-02 0.0000000e+00 
9.2567527e-01 -1.2709034e-02 0.0000000e+00 
9.1000277e-01 -2.0089226e-02 0.0000000e+00 
9.0503174e-01 -2.0275241e-02 0.0000000e+00 
9.1521424e-01 -1.9870967e-02 0.0000000e+00 
9.0082997e-01 -2.0010289e-02 0.0000000e+00 
1.1066635e+00 -7.0782001e-03 0.0000000e+00 
9.2955106e-01 -8.6546941e-03 0.0000000e+00 
9.2453384e-01 -1.5983298e-02 0.0000000e+00 
8.9583057e-01 -1.8910717e-02 0.0000000e+00 
9.1925788e-01 -1.9823553e-02 0.0000000e+00 
8.8999450e-01 -1.7324682e-02 0.0000000e+00 
8.9818192e-01 -1.1321989e-02 0.0000000e+00 
9.2892134e-01 -1.1848642e-02 0.0000000e+00 
9.3115848e-01 -6.9566183e-03 0.0000000e+00 
0.0000000e+00 0.0000000e+00 0.0000000e+00 
9.1300124e-01 -2.3398044e-02 0.0000000e+00 
8.3949023e-01 -1.3995077e-02 0.0000000e+00 
9.2314541e-01 -1.9459302e-02 0.0000000e+00 
9.0697718e-01 -2.4286695e-02 0.0000000e+00 
9.2806697e-01 -1.5240147e-02 0.0000000e+00 
9.0239161e-01 -2.3817629e-02 0.0000000e+00 
9.1739482e-01 -2.3445057e-02 0.0000000e+00 
8.9804530e-01 -2.3417881e-02 0.0000000e+00 
9.3177134e-01 -1.0261358e-02 0.0000000e+00 
1.0870188e+00 -1.2344562e-02 0.0000000e+00 
9.2697561e-01 -1.8823097e-02 0.0000000e+00 
8.9357245e-01 -2.2323547e-02 0.0000000e+00 
9.2151576e-01 -2.3162093e-02 0.0000000e+00 
8.8897580e-01 -1.2180171e-02 0.0000000e+00 
8.8590664e-01 -2.0918487e-02 0.0000000e+00 
9.3154347e-01 -1.4190504e-02 0.0000000e+00 
9.3441021e-01 -7.5474246e-03 0.0000000e+00 
0.0000000e+00 0.0000000e+00 0.0000000e+00 
9.0917027e-01 -2.8375294e-02 0.0000000e+00 
9.0455997e-01 -2.8339110e-02 0.0000000e+00 
8.5060465e-01 -1.7945383e-02 0.0000000e+00 
9.2565471e-01 -2.2605501e-02 0.0000000e+00 
8.9957446e-01 -2.7732620e-02 0.0000000e+00 
9.3070132e-01 -1.7879808e-02 0.0000000e+00 
9.1401452e-01 -2.8313287e-02 0.0000000e+00 
9.1971439e-01 -2.7059086e-02 0.0000000e+00 
8.9485949e-01 -2.7185133e-02 0.0000000e+00 
9.3487525e-01 -1.2538026e-02 0.0000000e+00 
1.0518647e+00 -2.3394115e-02 0.0000000e+00 
8.8372278e-01 -2.2300290e-02 0.0000000e+00 
8.9014405e-01 -2.5737226e-02 0.0000000e+00 
9.2967039e-01 -2.1742277e-02 0.0000000e+00 
9.2413253e-01 -2.6586976e-02 0.0000000e+00 
8.8198054e-01 -1.3773835e-02 0.0000000e+00 
9.3441832e-01 -1.6674802e-02 0.0000000e+00 
9.0669996e-01 -3.2562759e-02 0.0000000e+00 
8.8403702e-01 -2.3850789e-02 0.0000000e+00 
9.3785763e-01 -8.1771631e-03 0.0000000e+00 
0.0000000e+00 0.0000000e+00 0.0000000e+00 
9.0168202e-01 -3.2461379e-02 0.0000000e+00 
9.1175455e-01 -3.2564282e-02 0.0000000e+00 
9.1649246e-01 -3.1609524e-02 0.0000000e+00 
8.9639592e-01 -3.1761542e-02 0.0000000e+00 
8.7761921e-01 -2.4126619e-02 0.0000000e+00 
9.2845798e-01 -2.5805255e-02 0.0000000e+00 
9.3363929e-01 -2.0609988e-02 0.0000000e+00 
9.3840486e-01 -1.1286527e-02 0.0000000e+00 
9.2158383e-01 -3.0990643e-02 0.0000000e+00 
8.9104778e-01 -3.1456560e-02 0.0000000e+00 
8.7825018e-01 -2.2414399e-02 0.0000000e+00 
1.0393800e+00 -3.1037724e-02 0.0000000e+00 
9.3805319e-01 -1.5193753e-02 0.0000000e+00 
9.2616260e-01 -2.9944113e-02 0.0000000e+00 
8.8584661e-01 -3.0670222e-02 0.0000000e+00 
9.3265975e-01 -2.4741368e-02 0.0000000e+00 
8.6684293e-01 -1.1264836e-02 0.0000000e+00 
9.0987730e-01 -3.6823552e-02 0.0000000e+00 
9.0409064e-01 -3.7038319e-02 0.0000000e+00 
9.3754268e-01 -1.9221762e-02 0.0000000e+00 
8.9876014e-01 -3.6573116e-02 0.0000000e+00 
9.1502762e-01 -3.6344018e-02 0.0000000e+00 
8.8047498e-01 -2.9998153e-02 0.0000000e+00 
9.4169825e-01 -8.6279530e-03 0.0000000e+00 
0.0000000e+00 0.0000000e+00 0.0000000e+00 
8.9328134e-01 -3.5853378e-02 0.0000000e+00 
9.2001671e-01 -3.5614852e-02 0.0000000e+00 
9.3150252e-01 -2.9062174e-02 0.0000000e+00 
8.7806273e-01 -1.6954057e-03 0.0000000e+00 
9.3682611e-01 -2.3429256e-02 0.0000000e+00 
9.4178337e-01 -1.2918371e-02 0.0000000e+00 
9.2486322e-01 -3.4542106e-02 0.0000000e+00 
8.8768530e-01 -3.5171945e-02 0.0000000e+00 
8.7326008e-01 -3.2154612e-02 0.0000000e+00 
9.4141489e-01 -1.7582759e-02 0.0000000e+00 
9.2955077e-01 -3.3268828e-02 0.0000000e+00 
8.8265210e-01 -3.3814102e-02 0.0000000e+00 
9.0744317e-01 -4.1572697e-02 0.0000000e+00 
9.3592554e-01 -2.7809400e-02 0.0000000e+00 
9.1295677e-01 -4.1195262e-02 0.0000000e+00 
9.0108693e-01 -4.1728280e-02 0.0000000e+00 
1.0500734e+00 4.6623182e-03 0.0000000e+00 
8.9539015e-01 -4.1268442e-02 0.0000000e+00 
9.1819590e-01 -4.0464617e-02 0.0000000e+00 
9.4091576e-01 -2.1861894e-02 0.0000000e+00 
8.5283172e-01 -3.3286400e-02 0.0000000e+00 
8.7836736e-01 -3.1042105e-02 0.0000000e+00 
8.8987005e-01 -4.0823843e-02 0.0000000e+00 
9.4569069e-01 -9.1240574e-03 0.0000000e+00 
0.0000000e+00 0.0000000e+00 0.0000000e+00 
9.2346269e-01 -3.9395254e-02 0.0000000e+00 
9.3486351e-01 -3.2374509e-02 0.0000000e+00 
9.4524378e-01 -1.5698118e-02 0.0000000e+00 
9.4026512e-01 -2.6304377e-02 0.0000000e+00 
9.2837739e-01 -3.8102925e-02 0.0000000e+00 
8.8377392e-01 -4.0324669e-02 0.0000000e+00 
8.1475794e-01 -3.4118924e-02 0.0000000e+00 
8.7865627e-01 -2.7585179e-02 0.0000000e+00 
9.4495207e-01 -2.0077685e-02 0.0000000e+00 
9.0472507e-01 -4.6641674e-02 0.0000000e+00 
9.1060907e-01 -4.6322513e-02 0.0000000e+00 
9.3321753e-01 -3.6484413e-02 0.0000000e+00 
8.7735909e-01 -3.9009579e-02 0.0000000e+00 
8.9795518e-01 -4.6690427e-02 0.0000000e+00 
9.1631496e-01 -4.5648433e-02 0.0000000e+00 
8.6336690e-01 -1.3995063e-02 0.0000000e+00 
9.3944746e-01 -3.0917907e-02 0.0000000e+00 
8.9263994e-01 -4.6486516e-02 0.0000000e+00 
9.2182446e-01 -4.4540543e-02 0.0000000e+00 
9.4454056e-01 -2.4554091e-02 0.0000000e+00 
8.7444127e-01 -2.3234157e-02 0.0000000e+00 
9.1382277e-01 -5.0815742e-02 0.0000000e+00 
8.7017620e-01 -3.7681200e-02 0.0000000e+00 
8.8638341e-01 -4.5709599e-02 0.0000000e+00 
9.2716497e-01 -4.3245926e-02 0.0000000e+00 
9.4982070e-01 -9.6476460e-03 0.0000000e+00 
0.0000000e+00 0.0000000e+00 0.0000000e+00 
9.4945639e-01 -1.3038107e-02 0.0000000e+00 
9.3847269e-01 -3.5720557e-02 0.0000000e+00 
9.4885957e-01 -1.8068079e-02 0.0000000e+00 
8.8013184e-01 -4.4405557e-02 0.0000000e+00 
9.4398332e-01 -2.9225348e-02 0.0000000e+00 
9.3228507e-01 -4.1611314e-02 0.0000000e+00 
8.6600679e-01 -3.5651907e-02 0.0000000e+00 
8.3688235e-01 -1.9417042e-02 0.0000000e+00 
9.0804678e-01 -5.1760375e-02 0.0000000e+00 
9.1425097e-01 -5.1004492e-02 0.0000000e+00 
9.4863904e-01 -2.2587629e-02 0.0000000e+00 
9.0192229e-01 -5.2427702e-02 0.0000000e+00 
9.4929546e-01 -6.4669289e-02 0.0000000e+00 
9.2014962e-01 -4.9984720e-02 0.0000000e+00 
8.9550817e-01 -5.2331626e-02 0.0000000e+00 
9.3721992e-01 -3.9788134e-02 0.0000000e+00 
8.7403637e-01 -4.2760260e-02 0.0000000e+00 
9.4327104e-01 -3.4077059e-02 0.0000000e+00 
8.8880777e-01 -5.1834844e-02 0.0000000e+00 
9.2567676e-01 -4.8650008e-02 0.0000000e+00 
9.4828182e-01 -2.7267687e-02 0.0000000e+00 
8.6602044e-01 -3.4681220e-02 0.0000000e+00 
9.5281899e-01 -1.5874546e-02 0.0000000e+00 
8.8201332e-01 -5.0952148e-02 0.0000000e+00 
9.1088432e-01 -3.7497491e-02 0.0000000e+00 
9.3113637e-01 -4.6946872e-02 0.0000000e+00 
8.6715156e-01 -4.0075336e-02 0.0000000e+00 
9.5418876e-01 -9.9965176e-03 0.0000000e+00 
0.0000000e+00 0.0000000e+00 0.0000000e+00 
9.5278835e-01 -2.0461278e-02 0.0000000e+00 
9.4237840e-01 -3.9122436e-02 0.0000000e+00 
8.7535286e-01 -4.9824797e-02 0.0000000e+00 
9.3638480e-01 -4.5122199e-02 0.0000000e+00 
9.4780684e-01 -3.2155395e-02 0.0000000e+00 
9.1191995e-01 -5.6803714e-02 0.0000000e+00 
9.0541607e-01 -5.7619631e-02 0.0000000e+00 
8.6055833e-01 -3.6376540e-02 0.0000000e+00 
9.1817069e-01 -5.5756517e-02 0.0000000e+00 
8.9866579e-01 -5.8191258e-02 0.0000000e+00 
8.4114683e-01 -2.7393691e-02 0.0000000e+00 
9.4064921e-01 -4.3021712e-02 0.0000000e+00 
9.5263571e-01 -2.5168143e-02 0.0000000e+00 
8.9183742e-01 -5.8044765e-02 0.0000000e+00 
9.2424250e-01 -5.4416731e-02 0.0000000e+00 
8.6862445e-01 -4.7795970e-02 0.0000000e+00 
1.0093873e+00 -3.3540152e-02 0.0000000e+00 
8.8473618e-01 -5.7462122e-02 0.0000000e+00 
9.2998505e-01 -5.2641775e-02 0.0000000e+00 
9.5669860e-01 -1.3517000e-02 0.0000000e+00 
9.4722968e-01 -3.7231669e-02 0.0000000e+00 
9.5236486e-01 -3.0034488e-02 0.0000000e+00 
8.6035538e-01 -3.1860594e-02 0.0000000e+00 
9.5680809e-01 -1.8131906e-02 0.0000000e+00 
8.6150378e-01 -4.5361143e-02 0.0000000e+00 
9.3544436e-01 -5.0730072e-02 0.0000000e+00 
8.7747484e-01 -5.6518894e-02 0.0000000e+00 
8.8340205e-01 -3.4626175e-02 0.0000000e+00 
0.0000000e+00 0.0000000e+00 0.0000000e+00 
9.5863515e-01 -1.0412563e-02 0.0000000e+00 
9.5683908e-01 -2.2868732e-02 0.0000000e+00 
9.0945542e-01 -6.3013352e-02 0.0000000e+00 
8.7019533e-01 -5.4807365e-02 0.0000000e+00 
9.1614580e-01 -6.1894637e-02 0.0000000e+00 
9.4078463e-01 -4.8491396e-02 0.0000000e+00 
9.0270984e-01 -6.3901521e-02 0.0000000e+00 
9.4565910e-01 -4.3910895e-02 0.0000000e+00 
9.5197606e-01 -3.5114851e-02 0.0000000e+00 
8.9547753e-01 -6.4132899e-02 0.0000000e+00 
9.2246097e-01 -6.0482889e-02 0.0000000e+00 
8.5272652e-01 -4.3097168e-02 0.0000000e+00 
8.3688694e-01 -1.7947907e-02 0.0000000e+00 
8.8806081e-01 -6.4072683e-02 0.0000000e+00 
9.2861241e-01 -5.8647148e-02 0.0000000e+00 
1.0154989e+00 -1.3637627e-03 0.0000000e+00 
9.5676613e-01 -2.7745211e-02 0.0000000e+00 
9.6020877e-01 -1.5053407e-02 0.0000000e+00 
8.6299574e-01 -5.2297130e-02 0.0000000e+00 
8.8032287e-01 -6.3647240e-02 0.0000000e+00 
9.3454802e-01 -5.6670848e-02 0.0000000e+00 
9.5150793e-01 -4.0327638e-02 0.0000000e+00 
9.5660031e-01 -3.2813646e-02 0.0000000e+00 
9.6098047e-01 -2.0412909e-02 0.0000000e+00 
8.4859151e-01 -4.2056702e-02 0.0000000e+00 
9.4016528e-01 -5.4333109e-02 0.0000000e+00 
8.7248009e-01 -6.2558614e-02 0.0000000e+00 
8.5602194e-01 -4.8857912e-02 0.0000000e+00 
8.6528355e-01 -4.5650364e-03 0.0000000e+00 
9.0682542e-01 -6.9617316e-02 0.0000000e+00 
9.1387486e-01 -6.8429932e-02 0.0000000e+00 
9.6327609e-01 -1.0665203e-02 0.0000000e+00 
0.0000000e+00 0.0000000e+00 0.0000000e+00 
8.9937639e-01 -7.0459522e-02 0.0000000e+00 
9.2076677e-01 -6.6950634e-02 0.0000000e+00 
9.6104741e-01 -2.5302064e-02 0.0000000e+00 
8.6432195e-01 -6.0639277e-02 0.0000000e+00 
8.9187264e-01 -7.0737481e-02 0.0000000e+00 
9.4567055e-01 -5.1888835e-02 0.0000000e+00 
9.2728251e-01 -6.4999335e-02 0.0000000e+00 
9.5634335e-01 -3.8051732e-02 0.0000000e+00 
8.2145572e-01 -4.0591039e-02 0.0000000e+00 
8.8391489e-01 -7.0733786e-02 0.0000000e+00 
8.4836388e-01 -4.4461843e-02 0.0000000e+00 
9.3338531e-01 -6.2919706e-02 0.0000000e+00 
9.5102358e-01 -4.7507554e-02 0.0000000e+00 
9.6106356e-01 -3.0322688e-02 0.0000000e+00 
1.0496001e+00 3.6129006e-03 0.0000000e+00 
8.5617614e-01 -5.8129899e-02 0.0000000e+00 
9.6485609e-01 -1.7399902e-02 0.0000000e+00 
9.3936843e-01 -6.0454696e-02 0.0000000e+00 
8.7552625e-01 -7.0227303e-02 0.0000000e+00 
8.4659457e-01 -3.7044208e-02 0.0000000e+00 
9.6529490e-01 -2.2734750e-02 0.0000000e+00 
8.6715519e-01 -6.8736084e-02 0.0000000e+00 
9.6102691e-01 -3.5553925e-02 0.0000000e+00 
9.5607883e-01 -4.4615187e-02 0.0000000e+00 
9.4511908e-01 -5.7952810e-02 0.0000000e+00 
9.1158819e-01 -7.5406142e-02 0.0000000e+00 
8.4787613e-01 -5.5121738e-02 0.0000000e+00 
7.7816850e-01 -3.7963428e-02 0.0000000e+00 
9.0397120e-01 -7.6699167e-02 0.0000000e+00 
9.1871506e-01 -7.3802799e-02 0.0000000e+00 
9.2568219e-01 -7.1753576e-02 0.0000000e+00 
8.9606571e-01 -7.7627696e-02 0.0000000e+00 
9.6790147e-01 -1.0943775e-02 0.0000000e+00 
0.0000000e+00 0.0000000e+00 0.0000000e+00 
8.8771594e-01 -7.7785045e-02 0.0000000e+00 
9.6546668e-01 -2.7716182e-02 0.0000000e+00 
9.3238568e-01 -6.9574051e-02 0.0000000e+00 
8.5825950e-01 -6.6826068e-02 0.0000000e+00 
8.0540842e-01 8.8090665e-04 0.0000000e+00 
9.5064449e-01 -5.4851893e-02 0.0000000e+00 
9.6090180e-01 -4.0878080e-02 0.0000000e+00 
8.4244955e-01 -2.7530031e-02 0.0000000e+00 
8.7921470e-01 -7.7672318e-02 0.0000000e+00 
9.3863600e-01 -6.6976123e-02 0.0000000e+00 
9.6905971e-01 -1.5140397e-02 0.0000000e+00 
8.3736235e-01 -5.1875312e-02 0.0000000e+00 
9.1449130e-01 -3.9219242e-02 0.0000000e+00 
9.6558857e-01 -3.2892141e-02 0.0000000e+00 
8.4923768e-01 -6.3616924e-02 0.0000000e+00 
8.7014377e-01 -7.7153035e-02 0.0000000e+00 
9.6938521e-01 -2.0041369e-02 0.0000000e+00 
9.5584518e-01 -5.2230690e-02 0.0000000e+00 
9.4467539e-01 -6.4313531e-02 0.0000000e+00 
9.0893406e-01 -8.2795702e-02 0.0000000e+00 
9.1676909e-01 -8.1175864e-02 0.0000000e+00 
8.2904369e-01 -4.7304817e-02 0.0000000e+00 
9.6969569e-01 -2.5010023e-02 0.0000000e+00 
9.0071487e-01 -8.4116720e-02 0.0000000e+00 
8.6104518e-01 -7.5708471e-02 0.0000000e+00 
9.2412490e-01 -7.8969158e-02 0.0000000e+00 
9.6565145e-01 -3.8234189e-02 0.0000000e+00 
9.5040709e-01 -6.1323520e-02 0.0000000e+00 
7.9006797e-01 -1.5637007e-02 0.0000000e+00 
8.4067750e-01 -5.9702281e-02 0.0000000e+00 
8.9216149e-01 -8.5163631e-02 0.0000000e+00 
9.3101555e-01 -7.6586485e-02 0.0000000e+00 
9.6080106e-01 -4.9078576e-02 0.0000000e+00 
8.8344729e-01 -8.5410118e-02 0.0000000e+00 
9.7283101e-01 -1.1072849e-02 0.0000000e+00 
0.0000000e+00 0.0000000e+00 0.0000000e+00 
9.3766379e-01 -7.3784322e-02 0.0000000e+00 
9.6993530e-01 -3.0124990e-02 0.0000000e+00 
8.5138232e-01 -7.3440172e-02 0.0000000e+00 
9.0244800e-01 -5.2192635e-03 0.0000000e+00 
9.5596308e-01 -5.8318291e-02 0.0000000e+00 
8.7438965e-01 -8.5424066e-02 0.0000000e+00 
9.7351426e-01 -1.6465049e-02 0.0000000e+00 
8.2404220e-01 -4.3409623e-02 0.0000000e+00 
9.4405752e-01 -7.1023107e-02 0.0000000e+00 
8.3111823e-01 -5.4909810e-02 0.0000000e+00 
8.8241750e-01 -4.5884703e-03 0.0000000e+00 
9.6564257e-01 -4.5964252e-02 0.0000000e+00 
9.7015321e-01 -3.5409078e-02 0.0000000e+00 
8.4120733e-01 -7.0454754e-02 0.0000000e+00 
8.6440194e-01 -8.4779449e-02 0.0000000e+00 
9.5009691e-01 -6.7814134e-02 0.0000000e+00 
9.7395903e-01 -2.2209177e-02 0.0000000e+00 
9.6110916e-01 -5.5050187e-02 0.0000000e+00 
9.1462404e-01 -8.8797800e-02 0.0000000e+00 
9.0613931e-01 -9.0757549e-02 0.0000000e+00 
9.2231607e-01 -8.6565040e-02 0.0000000e+00 
8.2207298e-01 -4.8129022e-02 0.0000000e+00 
8.9757735e-01 -9.2243843e-02 0.0000000e+00 
9.2991167e-01 -8.4104180e-02 0.0000000e+00 
9.7434622e-01 -2.7281338e-02 0.0000000e+00 
8.5462910e-01 -8.3144940e-02 0.0000000e+00 
9.5595294e-01 -6.4684466e-02 0.0000000e+00 
9.7038668e-01 -4.0811520e-02 0.0000000e+00 
8.8839459e-01 -9.3391865e-02 0.0000000e+00 
9.3692935e-01 -8.1086926e-02 0.0000000e+00 
7.7528685e-01 -4.2235985e-02 0.0000000e+00 
8.3152920e-01 -6.7064568e-02 0.0000000e+00 
9.6614951e-01 -5.1755365e-02 0.0000000e+00 
8.7867963e-01 -9.3630485e-02 0.0000000e+00 
9.4359648e-01 -7.7857263e-02 0.0000000e+00 
9.7767788e-01 -1.1225414e-02 0.0000000e+00 
0.0000000e+00 0.0000000e+00 0.0000000e+00 
8.2355702e-01 -6.1307218e-02 0.0000000e+00 
9.7474837e-01 -3.2492768e-02 0.0000000e+00 
9.8762184e-01 7.9968916e-03 0.0000000e+00 
8.4411508e-01 -8.0874093e-02 0.0000000e+00 
9.6136683e-01 -6.1211586e-02 0.0000000e+00 
8.6902177e-01 -9.3747541e-02 0.0000000e+00 
9.5005053e-01 -7.4673340e-02 0.0000000e+00 
9.7800547e-01 -1.9300176e-02 0.0000000e+00 
8.2314742e-01 -4.2168301e-02 0.0000000e+00 
7.5570589e-01 -3.7208620e-02 0.0000000e+00 
9.7084326e-01 -4.8278548e-02 0.0000000e+00 
9.7516340e-01 -3.7840445e-02 0.0000000e+00 
8.3361858e-01 -7.7806503e-02 0.0000000e+00 
9.5600450e-01 -7.1069337e-02 0.0000000e+00 
8.5809779e-01 -9.3036011e-02 0.0000000e+00 
9.7845066e-01 -2.4356999e-02 0.0000000e+00 
9.1223121e-01 -9.7154059e-02 0.0000000e+00 
9.2071515e-01 -9.4776481e-02 0.0000000e+00 
9.2866892e-01 -9.1820121e-02 0.0000000e+00 
9.0337867e-01 -9.9372067e-02 0.0000000e+00 
9.6662277e-01 -5.7793833e-02 0.0000000e+00 
8.9424002e-01 -1.0097489e-01 0.0000000e+00 
9.3615526e-01 -8.8811159e-02 0.0000000e+00 
8.0902684e-01 -5.7927582e-02 0.0000000e+00 
8.8437253e-01 -1.0195750e-01 0.0000000e+00 
8.4764081e-01 -9.1460943e-02 0.0000000e+00 
9.7891617e-01 -2.9469207e-02 0.0000000e+00 
9.4326121e-01 -8.5329831e-02 0.0000000e+00 
7.6430655e-01 2.4867731e-03 0.0000000e+00 
8.0792171e-01 -3.4786627e-02 0.0000000e+00 
9.6177101e-01 -6.7676768e-02 0.0000000e+00 
9.7557539e-01 -4.3329619e-02 0.0000000e+00 
8.2242370e-01 -7.3724307e-02 0.0000000e+00 
8.7381834e-01 -1.0269607e-01 0.0000000e+00 