# vtk DataFile Version 4.0
vtk output
ASCII
DATASET UNSTRUCTURED_GRID
POINTS 5817 float
1.0000000e+01 0.0000000e+00 0.0000000e+00 
9.8999996e+00 0.0000000e+00 0.0000000e+00 
1.0000000e+01 1.0000000e-01 0.0000000e+00 
9.8583298e+00 8.8835500e-02 0.0000000e+00 
9.8000002e+00 0.0000000e+00 0.0000000e+00 
1.0000000e+01 2.0000000e-01 0.0000000e+00 
9.8999996e+00 1.7320500e-01 0.0000000e+00 
9.7500000e+00 8.6602502e-02 0.0000000e+00 
9.8000002e+00 1.7320500e-01 0.0000000e+00 
1.0000000e+01 3.0000001e-01 0.0000000e+00 
9.6999998e+00 0.0000000e+00 0.0000000e+00 
9.8583298e+00 2.6650599e-01 0.0000000e+00 
9.6999998e+00 1.7320500e-01 0.0000000e+00 
9.6499996e+00 8.6602502e-02 0.0000000e+00 
9.7500000e+00 2.5980800e-01 0.0000000e+00 
9.9033298e+00 3.4808499e-01 0.0000000e+00 
1.0000000e+01 4.0000001e-01 0.0000000e+00 
9.6000004e+00 0.0000000e+00 0.0000000e+00 
9.8000002e+00 3.4641001e-01 0.0000000e+00 
9.6000004e+00 1.7320500e-01 0.0000000e+00 
9.6499996e+00 2.5980800e-01 0.0000000e+00 
9.8583298e+00 4.2751101e-01 0.0000000e+00 
9.5500002e+00 8.6602502e-02 0.0000000e+00 
9.6999998e+00 3.4641001e-01 0.0000000e+00 
1.0000000e+01 5.0000000e-01 0.0000000e+00 
9.5000000e+00 0.0000000e+00 0.0000000e+00 
9.7500000e+00 4.3301299e-01 0.0000000e+00 
9.5500002e+00 2.5980800e-01 0.0000000e+00 
9.6000004e+00 3.4641001e-01 0.0000000e+00 
9.5000000e+00 1.7320500e-01 0.0000000e+00 
9.8999996e+00 5.1961499e-01 0.0000000e+00 
9.4499998e+00 8.6602502e-02 0.0000000e+00 
9.6499996e+00 4.3301299e-01 0.0000000e+00 
9.8000002e+00 5.1961499e-01 0.0000000e+00 
1.0000000e+01 6.0000002e-01 0.0000000e+00 
9.3999996e+00 0.0000000e+00 0.0000000e+00 
9.6999998e+00 5.1961499e-01 0.0000000e+00 
9.4499998e+00 2.5980800e-01 0.0000000e+00 
9.5000000e+00 3.4641001e-01 0.0000000e+00 
9.8893099e+00 6.1410201e-01 0.0000000e+00 
9.3999996e+00 1.7320500e-01 0.0000000e+00 
9.5500002e+00 4.3301299e-01 0.0000000e+00 
9.3500004e+00 8.6602502e-02 0.0000000e+00 
9.6000004e+00 5.1961499e-01 0.0000000e+00 
9.7873602e+00 6.3313198e-01 0.0000000e+00 
9.3999996e+00 3.4641001e-01 0.0000000e+00 
9.3000002e+00 0.0000000e+00 0.0000000e+00 
1.0000000e+01 6.9999999e-01 0.0000000e+00 
9.3500004e+00 2.5980800e-01 0.0000000e+00 
9.4499998e+00 4.3301299e-01 0.0000000e+00 
9.6772203e+00 6.2931901e-01 0.0000000e+00 
9.3000002e+00 1.7320500e-01 0.0000000e+00 
9.8485203e+00 7.1224803e-01 0.0000000e+00 
9.5041599e+00 5.3742099e-01 0.0000000e+00 
9.2500000e+00 8.6602502e-02 0.0000000e+00 
9.5762100e+00 6.3882500e-01 0.0000000e+00 
9.7494297e+00 7.2565800e-01 0.0000000e+00 
9.3000002e+00 3.4641001e-01 0.0000000e+00 
9.3420296e+00 4.3454701e-01 0.0000000e+00 
9.2500000e+00 2.5980800e-01 0.0000000e+00 
9.9096899e+00 7.9136300e-01 0.0000000e+00 
1.0000000e+01 8.0000001e-01 0.0000000e+00 
9.1999998e+00 0.0000000e+00 0.0000000e+00 
9.6503296e+00 7.3906797e-01 0.0000000e+00 
9.1999998e+00 1.7320500e-01 0.0000000e+00 
9.3813105e+00 5.4442602e-01 0.0000000e+00 
9.8105898e+00 8.0477297e-01 0.0000000e+00 
9.4674196e+00 6.5563202e-01 0.0000000e+00 
9.1499996e+00 8.6602502e-02 0.0000000e+00 
9.7114897e+00 8.1818300e-01 0.0000000e+00 
9.1999998e+00 3.4641001e-01 0.0000000e+00 
9.5512304e+00 7.5247800e-01 0.0000000e+00 
9.2865801e+00 5.0924700e-01 0.0000000e+00 
9.2342796e+00 4.2777699e-01 0.0000000e+00 
9.1499996e+00 2.5980800e-01 0.0000000e+00 
9.8717499e+00 8.8388801e-01 0.0000000e+00 
1.0000000e+01 8.9999998e-01 0.0000000e+00 
9.1000004e+00 0.0000000e+00 0.0000000e+00 
9.1000004e+00 1.7320500e-01 0.0000000e+00 
9.6124001e+00 8.3159399e-01 0.0000000e+00 
9.7726603e+00 8.9729899e-01 0.0000000e+00 
9.3619204e+00 6.7122602e-01 0.0000000e+00 
9.2737198e+00 5.9348202e-01 0.0000000e+00 
9.4521399e+00 7.6588798e-01 0.0000000e+00 
9.2042999e+00 5.2308202e-01 0.0000000e+00 
9.0500002e+00 8.6602502e-02 0.0000000e+00 
9.9329100e+00 9.6300399e-01 0.0000000e+00 
9.6735601e+00 9.1070902e-01 0.0000000e+00 
9.1368198e+00 4.4975999e-01 0.0000000e+00 
9.5132999e+00 8.4500402e-01 0.0000000e+00 
9.0923996e+00 3.6564499e-01 0.0000000e+00 
9.0500002e+00 2.5980800e-01 0.0000000e+00 
9.8338203e+00 9.7641402e-01 0.0000000e+00 
1.0000000e+01 1.0000000e+00 0.0000000e+00 
9.0000000e+00 0.0000000e+00 0.0000000e+00 
9.3530397e+00 7.7929902e-01 0.0000000e+00 
9.0000000e+00 1.7320500e-01 0.0000000e+00 
9.5744600e+00 9.2411900e-01 0.0000000e+00 
9.2438698e+00 6.8863100e-01 0.0000000e+00 
9.7347202e+00 9.8982400e-01 0.0000000e+00 
9.1771202e+00 6.1455202e-01 0.0000000e+00 
9.4141998e+00 8.5841399e-01 0.0000000e+00 
9.1068001e+00 5.4364800e-01 0.0000000e+00 
9.9044905e+00 1.0417700e+00 0.0000000e+00 
8.9499998e+00 8.6602502e-02 0.0000000e+00 
9.6356201e+00 1.0032300e+00 0.0000000e+00 
9.0417004e+00 4.7562101e-01 0.0000000e+00 
9.4753599e+00 9.3752903e-01 0.0000000e+00 
8.9499998e+00 2.5980800e-01 0.0000000e+00 
8.9784098e+00 3.7431899e-01 0.0000000e+00 
9.7958803e+00 1.0689400e+00 0.0000000e+00 
1.0000000e+01 1.1000000e+00 0.0000000e+00 
8.8999996e+00 0.0000000e+00 0.0000000e+00 
9.2132702e+00 7.8782201e-01 0.0000000e+00 
9.1461802e+00 7.1470100e-01 0.0000000e+00 
8.8999996e+00 1.7320500e-01 0.0000000e+00 
9.5365295e+00 1.0166399e+00 0.0000000e+00 
9.0804300e+00 6.3953602e-01 0.0000000e+00 
9.6967897e+00 1.0823500e+00 0.0000000e+00 
9.2791595e+00 8.6298501e-01 0.0000000e+00 
9.3762703e+00 9.5093900e-01 0.0000000e+00 
9.0110798e+00 5.7062602e-01 0.0000000e+00 
9.8643503e+00 1.1422800e+00 0.0000000e+00 
8.8500004e+00 8.6602502e-02 0.0000000e+00 
8.8924799e+00 3.3931199e-01 0.0000000e+00 
8.9442501e+00 4.9722099e-01 0.0000000e+00 
9.5976896e+00 1.0957600e+00 0.0000000e+00 
9.4374304e+00 1.0300500e+00 0.0000000e+00 
8.8500004e+00 2.5980800e-01 0.0000000e+00 
9.7579498e+00 1.1614600e+00 0.0000000e+00 
9.1158600e+00 8.0676198e-01 0.0000000e+00 
8.8780699e+00 4.2282000e-01 0.0000000e+00 
1.0000000e+01 1.2000000e+00 0.0000000e+00 
8.8000002e+00 0.0000000e+00 0.0000000e+00 
9.0481195e+00 7.3358703e-01 0.0000000e+00 
9.1810904e+00 8.8230300e-01 0.0000000e+00 
9.2557602e+00 9.4870597e-01 0.0000000e+00 
8.9842997e+00 6.5732199e-01 0.0000000e+00 
8.8000002e+00 1.7320500e-01 0.0000000e+00 
9.4985905e+00 1.1091700e+00 0.0000000e+00 
9.6588497e+00 1.1748700e+00 0.0000000e+00 
9.9182100e+00 1.2271700e+00 0.0000000e+00 
9.3251104e+00 1.0312500e+00 0.0000000e+00 
8.9135799e+00 5.8930397e-01 0.0000000e+00 
8.8084297e+00 3.5165700e-01 0.0000000e+00 
8.7500000e+00 8.6602502e-02 0.0000000e+00 
9.8191099e+00 1.2405800e+00 0.0000000e+00 
9.3931599e+00 1.1044700e+00 0.0000000e+00 
8.8464403e+00 5.1585698e-01 0.0000000e+00 
9.5597496e+00 1.1882800e+00 0.0000000e+00 
8.7500000e+00 2.5980800e-01 0.0000000e+00 
9.0928097e+00 9.0680802e-01 0.0000000e+00 
9.0184002e+00 8.2787198e-01 0.0000000e+00 
9.7200098e+00 1.2539901e+00 0.0000000e+00 
8.9546299e+00 7.5233299e-01 0.0000000e+00 
9.1608400e+00 9.7992098e-01 0.0000000e+00 
8.7830696e+00 4.4794399e-01 0.0000000e+00 
1.0000000e+01 1.3000000e+00 0.0000000e+00 
8.6999998e+00 0.0000000e+00 0.0000000e+00 
8.8883896e+00 6.7804497e-01 0.0000000e+00 
9.2278700e+00 1.0539600e+00 0.0000000e+00 
9.4606600e+00 1.2017000e+00 0.0000000e+00 
8.6918802e+00 1.9270100e-01 0.0000000e+00 
9.6209202e+00 1.2674000e+00 0.0000000e+00 
9.8934698e+00 1.3188500e+00 0.0000000e+00 
9.2957001e+00 1.1266800e+00 0.0000000e+00 
8.8160496e+00 6.0906202e-01 0.0000000e+00 
8.7121201e+00 3.7280300e-01 0.0000000e+00 
9.7811699e+00 1.3331100e+00 0.0000000e+00 
9.3628101e+00 1.2006400e+00 0.0000000e+00 
8.7522202e+00 5.4296398e-01 0.0000000e+00 
8.9969301e+00 9.2822403e-01 0.0000000e+00 
9.5218201e+00 1.2808100e+00 0.0000000e+00 
9.0639296e+00 1.0024101e+00 0.0000000e+00 
8.9203396e+00 8.4596699e-01 0.0000000e+00 
8.6267500e+00 1.0301200e-01 0.0000000e+00 
8.8568802e+00 7.7282602e-01 0.0000000e+00 
9.1301403e+00 1.0745500e+00 0.0000000e+00 
9.6820803e+00 1.3465199e+00 0.0000000e+00 
8.6461897e+00 3.0343899e-01 0.0000000e+00 
8.6854296e+00 4.6907300e-01 0.0000000e+00 
8.7924404e+00 7.0606899e-01 0.0000000e+00 
1.0000000e+01 1.4000000e+00 0.0000000e+00 
8.6000004e+00 0.0000000e+00 0.0000000e+00 
9.1987696e+00 1.1492000e+00 0.0000000e+00 
9.4227200e+00 1.2942200e+00 0.0000000e+00 
9.8423405e+00 1.4122200e+00 0.0000000e+00 
9.5829802e+00 1.3599300e+00 0.0000000e+00 
9.2651100e+00 1.2213700e+00 0.0000000e+00 
8.7203903e+00 6.3765901e-01 0.0000000e+00 
8.5783300e+00 2.3014100e-01 0.0000000e+00 
8.6154900e+00 3.9815599e-01 0.0000000e+00 
9.7432404e+00 1.4256300e+00 0.0000000e+00 
8.8996496e+00 9.4893199e-01 0.0000000e+00 
8.9663000e+00 1.0233800e+00 0.0000000e+00 
9.3332996e+00 1.2944700e+00 0.0000000e+00 
8.6545601e+00 5.6251901e-01 0.0000000e+00 
8.8232002e+00 8.6615598e-01 0.0000000e+00 
9.0328102e+00 1.0973001e+00 0.0000000e+00 
8.5388403e+00 7.1274497e-02 0.0000000e+00 
9.4838800e+00 1.3733400e+00 0.0000000e+00 
8.7642403e+00 8.0582702e-01 0.0000000e+00 
9.1010399e+00 1.1701699e+00 0.0000000e+00 
9.6441402e+00 1.4390399e+00 0.0000000e+00 
8.5491400e+00 3.2567400e-01 0.0000000e+00 
8.5171900e+00 1.6373500e-01 0.0000000e+00 
8.5903702e+00 4.9454200e-01 0.0000000e+00 
8.6965504e+00 7.3207003e-01 0.0000000e+00 
9.1679201e+00 1.2442800e+00 0.0000000e+00 
1.0000000e+01 1.5000000e+00 0.0000000e+00 
8.5000000e+00 0.0000000e+00 0.0000000e+00 
9.9187202e+00 1.5001400e+00 0.0000000e+00 
9.3847904e+00 1.3867500e+00 0.0000000e+00 
9.8044004e+00 1.5047500e+00 0.0000000e+00 
8.6287603e+00 6.5904301e-01 0.0000000e+00 
9.5450497e+00 1.4524500e+00 0.0000000e+00 
9.2358704e+00 1.3168499e+00 0.0000000e+00 
8.5254898e+00 4.2105001e-01 0.0000000e+00 
8.4849596e+00 2.5780100e-01 0.0000000e+00 
8.8687496e+00 1.0439600e+00 0.0000000e+00 
8.9374199e+00 1.1185300e+00 0.0000000e+00 
9.7053099e+00 1.5181600e+00 0.0000000e+00 
8.7996702e+00 9.7555703e-01 0.0000000e+00 
8.4502602e+00 8.9625701e-02 0.0000000e+00 
9.0043802e+00 1.1929899e+00 0.0000000e+00 
[...]
POINT_DATA 5817
FIELD FieldData 2
VELOCITY 3 5817  float
0.0000000e+00 0.0000000e+00 0.0000000e+00 
0.0000000e+00 0.0000000e+00 0.0000000e+00 
1.1588672e+00 3.7966650e-02 0.0000000e+00 
1.1346000e+00 2.1030378e-02 0.0000000e+00 
0.0000000e+00 0.0000000e+00 0.0000000e+00 
8.3351129e-01 -7.5291665e-03 0.0000000e+00 
8.4911752e-01 5.1829414e-03 0.0000000e+00 
1.1324939e+00 3.0886538e-03 0.0000000e+00 
8.4099108e-01 4.5394269e-03 0.0000000e+00 
9.4688636e-01 1.2520844e-02 0.0000000e+00 
0.0000000e+00 0.0000000e+00 0.0000000e+00 
9.2605633e-01 4.2061014e-03 0.0000000e+00 
8.3882350e-01 1.3127758e-03 0.0000000e+00 
1.1341985e+00 5.3346000e-04 0.0000000e+00 
9.2126954e-01 6.3640787e-04 0.0000000e+00 
9.0700078e-01 -3.1438589e-03 0.0000000e+00 
9.0823591e-01 -5.0240359e-03 0.0000000e+00 
0.0000000e+00 0.0000000e+00 0.0000000e+00 
9.0467829e-01 -9.9817000e-04 0.0000000e+00 
8.3607095e-01 -1.7279718e-03 0.0000000e+00 
9.1835487e-01 -2.9474893e-03 0.0000000e+00 
9.1416073e-01 -2.1863433e-03 0.0000000e+00 
1.1331285e+00 -7.0608623e-04 0.0000000e+00 
9.0172619e-01 -3.8372739e-03 0.0000000e+00 
9.1866201e-01 -3.2679313e-03 0.0000000e+00 
0.0000000e+00 0.0000000e+00 0.0000000e+00 
9.1058856e-01 -5.3185853e-03 0.0000000e+00 
9.1555762e-01 -5.1656184e-03 0.0000000e+00 
8.9911377e-01 -6.4154486e-03 0.0000000e+00 
8.3353984e-01 -3.6872311e-03 0.0000000e+00 
9.1822016e-01 -3.4782763e-03 0.0000000e+00 
1.1297822e+00 -1.7645463e-03 0.0000000e+00 
9.0739948e-01 -7.6367678e-03 0.0000000e+00 
9.1319245e-01 -7.1734954e-03 0.0000000e+00 
9.1913807e-01 -4.3446976e-03 0.0000000e+00 
0.0000000e+00 0.0000000e+00 0.0000000e+00 
9.1026658e-01 -9.0914592e-03 0.0000000e+00 
9.1198802e-01 -7.0494083e-03 0.0000000e+00 
8.9654422e-01 -8.9138187e-03 0.0000000e+00 
9.1609669e-01 -7.5436318e-03 0.0000000e+00 
8.3150148e-01 -5.4139183e-03 0.0000000e+00 
9.0418440e-01 -1.0140710e-02 0.0000000e+00 
1.1241741e+00 -2.8991252e-03 0.0000000e+00 
9.0733635e-01 -1.1634912e-02 0.0000000e+00 
9.1499609e-01 -9.8486617e-03 0.0000000e+00 
8.9397460e-01 -1.1295240e-02 0.0000000e+00 
0.0000000e+00 0.0000000e+00 0.0000000e+00 
9.2052329e-01 -6.5800473e-03 0.0000000e+00 
9.0732229e-01 -8.6450530e-03 0.0000000e+00 
9.0076745e-01 -1.2629709e-02 0.0000000e+00 
9.1227609e-01 -1.2597563e-02 0.0000000e+00 
8.3043641e-01 -7.2550494e-03 0.0000000e+00 
9.1860545e-01 -9.9383257e-03 0.0000000e+00 
9.0486377e-01 -1.4753857e-02 0.0000000e+00 
1.1157453e+00 -4.4137300e-03 0.0000000e+00 
9.0984470e-01 -1.5648559e-02 0.0000000e+00 
9.1675061e-01 -1.2996797e-02 0.0000000e+00 
8.9125139e-01 -1.3693995e-02 0.0000000e+00 
8.9674181e-01 -1.5393916e-02 0.0000000e+00 
9.0149379e-01 -1.0000745e-02 0.0000000e+00 
9.2160869e-01 -9.8347068e-03 0.0000000e+00 
9.2298687e-01 -7.6643010e-03 0.0000000e+00 
0.0000000e+00 0.0000000e+00 0.0000000e+00 
9.1476578e-01 -1.6133700e-02 0.0000000e+00 
8.3133256e-01 -9.5673045e-03 0.0000000e+00 
9.0110993e-01 -1.8468276e-02 0.0000000e+00 
9.2009962e-01 -1.2889007e-02 0.0000000e+00 
9.0722704e-01 -1.9385077e-02 0.0000000e+00 
1.1035664e+00 -6.5423264e-03 0.0000000e+00 
9.1854268e-01 -1.6088141e-02 0.0000000e+00 
8.8821191e-01 -1.6173374e-02 0.0000000e+00 
9.1259706e-01 -1.9532572e-02 0.0000000e+00 
8.9680731e-01 -1.9977285e-02 0.0000000e+00 
8.9190376e-01 -1.7899293e-02 0.0000000e+00 
8.9417011e-01 -1.1205227e-02 0.0000000e+00 
9.2345136e-01 -1.2415109e-02 0.0000000e+00 
9.2562008e-01 -8.8279909e-03 0.0000000e+00 
0.0000000e+00 0.0000000e+00 0.0000000e+00 
8.3531588e-01 -1.2585660e-02 0.0000000e+00 
9.1676134e-01 -1.9552816e-02 0.0000000e+00 
9.2226863e-01 -1.5709009e-02 0.0000000e+00 
9.0437776e-01 -2.3221806e-02 0.0000000e+00 
8.9887744e-01 -2.3319656e-02 0.0000000e+00 
9.1023469e-01 -2.3178423e-02 0.0000000e+00 
8.9412731e-01 -2.2895413e-02 0.0000000e+00 
1.0854189e+00 -9.8652644e-03 0.0000000e+00 
9.2682439e-01 -1.1587928e-02 0.0000000e+00 
9.2078835e-01 -1.9258985e-02 0.0000000e+00 
8.8847393e-01 -2.1537405e-02 0.0000000e+00 
9.1474771e-01 -2.3267318e-02 0.0000000e+00 
8.8324839e-01 -2.0009402e-02 0.0000000e+00 
8.8613617e-01 -1.2405178e-02 0.0000000e+00 
9.2590177e-01 -1.5009287e-02 0.0000000e+00 
9.2871046e-01 -9.8381424e-03 0.0000000e+00 
0.0000000e+00 0.0000000e+00 0.0000000e+00 
9.0766412e-01 -2.7041122e-02 0.0000000e+00 
8.4449774e-01 -1.7244665e-02 0.0000000e+00 
9.1906947e-01 -2.3043316e-02 0.0000000e+00 
9.0090650e-01 -2.7827192e-02 0.0000000e+00 
9.2473239e-01 -1.8661741e-02 0.0000000e+00 
8.9583242e-01 -2.7214015e-02 0.0000000e+00 
9.1250449e-01 -2.7191063e-02 0.0000000e+00 
8.9091349e-01 -2.6666248e-02 0.0000000e+00 
9.2910898e-01 -1.3492224e-02 0.0000000e+00 
1.0611838e+00 -1.5246672e-02 0.0000000e+00 
9.2332274e-01 -2.2531368e-02 0.0000000e+00 
8.8579476e-01 -2.5366053e-02 0.0000000e+00 
9.1713345e-01 -2.7060073e-02 0.0000000e+00 
8.7659883e-01 -1.3823302e-02 0.0000000e+00 
8.7837821e-01 -2.3665000e-02 0.0000000e+00 
9.2858553e-01 -1.7738270e-02 0.0000000e+00 
9.3212157e-01 -1.0761738e-02 0.0000000e+00 
0.0000000e+00 0.0000000e+00 0.0000000e+00 
9.0326983e-01 -3.2459754e-02 0.0000000e+00 
8.9808935e-01 -3.2294363e-02 0.0000000e+00 
8.5863310e-01 -2.0773342e-02 0.0000000e+00 
9.2169607e-01 -2.6614582e-02 0.0000000e+00 
8.9258844e-01 -3.1553995e-02 0.0000000e+00 
9.2747164e-01 -2.1698827e-02 0.0000000e+00 
9.0861171e-01 -3.2499284e-02 0.0000000e+00 
9.1497624e-01 -3.1315498e-02 0.0000000e+00 
8.8733274e-01 -3.0946078e-02 0.0000000e+00 
9.3226177e-01 -1.6150363e-02 0.0000000e+00 
1.0250775e+00 -2.1912809e-02 0.0000000e+00 
8.7355304e-01 -2.4517315e-02 0.0000000e+00 
8.8173747e-01 -2.9347919e-02 0.0000000e+00 
9.2615557e-01 -2.5864404e-02 0.0000000e+00 
9.1985387e-01 -3.0918965e-02 0.0000000e+00 
8.6936569e-01 -1.6452497e-02 0.0000000e+00 
9.3155235e-01 -2.0577861e-02 0.0000000e+00 
9.0044004e-01 -3.7041616e-02 0.0000000e+00 
8.7572664e-01 -2.7636608e-02 0.0000000e+00 
9.3581176e-01 -1.1615600e-02 0.0000000e+00 
0.0000000e+00 0.0000000e+00 0.0000000e+00 
8.9484173e-01 -3.6812410e-02 0.0000000e+00 
9.0599811e-01 -3.7148383e-02 0.0000000e+00 
9.1127473e-01 -3.6235142e-02 0.0000000e+00 
8.8904554e-01 -3.5967451e-02 0.0000000e+00 
8.8253057e-01 -2.4292879e-02 0.0000000e+00 
9.2463392e-01 -3.0243069e-02 0.0000000e+00 
9.3051547e-01 -2.4812821e-02 0.0000000e+00 
9.3613642e-01 -1.5014982e-02 0.0000000e+00 
9.1690165e-01 -3.5718758e-02 0.0000000e+00 
8.8327205e-01 -3.5558980e-02 0.0000000e+00 
8.6731136e-01 -2.6166625e-02 0.0000000e+00 
1.0100435e+00 -2.6875762e-02 0.0000000e+00 
9.3556428e-01 -1.9182106e-02 0.0000000e+00 
9.2196769e-01 -3.4701623e-02 0.0000000e+00 
8.7739956e-01 -3.4599710e-02 0.0000000e+00 
9.2927843e-01 -2.9263506e-02 0.0000000e+00 
8.5489589e-01 -1.6092457e-02 0.0000000e+00 
9.0382349e-01 -4.1818526e-02 0.0000000e+00 
8.9745057e-01 -4.1917864e-02 0.0000000e+00 
9.3480867e-01 -2.3492590e-02 0.0000000e+00 
8.9153510e-01 -4.1282542e-02 0.0000000e+00 
9.0951526e-01 -4.1404217e-02 0.0000000e+00 
8.7240052e-01 -3.3966247e-02 0.0000000e+00 
9.3975192e-01 -1.2346283e-02 0.0000000e+00 
0.0000000e+00 0.0000000e+00 0.0000000e+00 
8.8551420e-01 -4.0399820e-02 0.0000000e+00 
9.1503620e-01 -4.0744368e-02 0.0000000e+00 
9.2784882e-01 -3.3935938e-02 0.0000000e+00 
8.7684005e-01 -9.2599923e-03 0.0000000e+00 
9.3385041e-01 -2.8003620e-02 0.0000000e+00 
9.3966216e-01 -1.6952913e-02 0.0000000e+00 
9.2038614e-01 -3.9708182e-02 0.0000000e+00 
8.7942052e-01 -3.9499722e-02 0.0000000e+00 
8.6323404e-01 -3.5342686e-02 0.0000000e+00 
9.3903822e-01 -2.1903008e-02 0.0000000e+00 
9.2557377e-01 -3.8457748e-02 0.0000000e+00 
8.7372476e-01 -3.7798073e-02 0.0000000e+00 
9.0103841e-01 -4.7014244e-02 0.0000000e+00 
9.3271238e-01 -3.2711983e-02 0.0000000e+00 
9.0711313e-01 -4.6700198e-02 0.0000000e+00 
8.9401764e-01 -4.7043495e-02 0.0000000e+00 
1.0220550e+00 -8.4505556e-03 0.0000000e+00 
8.8774371e-01 -4.6448004e-02 0.0000000e+00 
9.1291088e-01 -4.6029590e-02 0.0000000e+00 
9.3833059e-01 -2.6482107e-02 0.0000000e+00 
8.3964461e-01 -3.4847539e-02 0.0000000e+00 
8.7002796e-01 -3.4622625e-02 0.0000000e+00 
8.8163209e-01 -4.5893166e-02 0.0000000e+00 
9.4397289e-01 -1.3077827e-02 0.0000000e+00 
0.0000000e+00 0.0000000e+00 0.0000000e+00 
9.1871738e-01 -4.4996675e-02 0.0000000e+00 
9.3140131e-01 -3.7667830e-02 0.0000000e+00 
9.4322503e-01 -2.0055391e-02 0.0000000e+00 
9.3745822e-01 -3.1241927e-02 0.0000000e+00 
9.2413640e-01 -4.3708559e-02 0.0000000e+00 
8.7492752e-01 -4.5288544e-02 0.0000000e+00 
8.2304013e-01 -3.7750039e-02 0.0000000e+00 
8.6954629e-01 -3.1072004e-02 0.0000000e+00 
9.4275331e-01 -2.4714796e-02 0.0000000e+00 
8.9794713e-01 -5.2536450e-02 0.0000000e+00 
9.0442079e-01 -5.2291188e-02 0.0000000e+00 
9.2947328e-01 -4.2099301e-02 0.0000000e+00 
8.6748123e-01 -4.3741301e-02 0.0000000e+00 
8.9048553e-01 -5.2442122e-02 0.0000000e+00 
9.1071963e-01 -5.1678408e-02 0.0000000e+00 
8.1763941e-01 -1.5178219e-02 0.0000000e+00 
9.3641621e-01 -3.6202826e-02 0.0000000e+00 
8.8464093e-01 -5.2117109e-02 0.0000000e+00 
9.1679031e-01 -5.0594248e-02 0.0000000e+00 
9.4214499e-01 -2.9519347e-02 0.0000000e+00 
8.5715777e-01 -2.6376637e-02 0.0000000e+00 
9.2228520e-01 -5.8205407e-02 0.0000000e+00 
8.6002183e-01 -4.2066902e-02 0.0000000e+00 
8.7778211e-01 -5.1127426e-02 0.0000000e+00 
9.2267454e-01 -4.9307391e-02 0.0000000e+00 
9.4832468e-01 -1.3701614e-02 0.0000000e+00 
0.0000000e+00 0.0000000e+00 0.0000000e+00 
9.4779950e-01 -1.7391240e-02 0.0000000e+00 
9.3521541e-01 -4.1429743e-02 0.0000000e+00 
9.4699651e-01 -2.2704175e-02 0.0000000e+00 
8.7101710e-01 -4.9566757e-02 0.0000000e+00 
9.4137192e-01 -3.4528922e-02 0.0000000e+00 
9.2830735e-01 -4.7643874e-02 0.0000000e+00 
8.5761428e-01 -3.9587319e-02 0.0000000e+00 
8.3280927e-01 -2.3412384e-02 0.0000000e+00 
9.0149212e-01 -5.8235783e-02 0.0000000e+00 
9.0832883e-01 -5.7525288e-02 0.0000000e+00 
9.4661254e-01 -2.7538734e-02 0.0000000e+00 
8.9473563e-01 -5.8839273e-02 0.0000000e+00 
8.9691305e-01 -5.5033907e-02 0.0000000e+00 
9.1482711e-01 -5.6529213e-02 0.0000000e+00 
8.8767111e-01 -5.8633339e-02 0.0000000e+00 
9.3374604e-01 -4.5805525e-02 0.0000000e+00 
8.6408538e-01 -4.7658332e-02 0.0000000e+00 
9.4043672e-01 -3.9738607e-02 0.0000000e+00 
8.8029188e-01 -5.7983674e-02 0.0000000e+00 
9.2091948e-01 -5.5186108e-02 0.0000000e+00 
9.4609302e-01 -3.2574322e-02 0.0000000e+00 
8.5139143e-01 -3.6789324e-02 0.0000000e+00 
9.5128947e-01 -2.0508708e-02 0.0000000e+00 
8.7280440e-01 -5.6904383e-02 0.0000000e+00 
9.2498821e-01 -3.5337575e-02 0.0000000e+00 
9.2692965e-01 -5.3450517e-02 0.0000000e+00 
8.5595483e-01 -4.4742234e-02 0.0000000e+00 
9.5291650e-01 -1.4312361e-02 0.0000000e+00 
0.0000000e+00 0.0000000e+00 0.0000000e+00 
9.5111269e-01 -2.5382664e-02 0.0000000e+00 
9.3936545e-01 -4.5218535e-02 0.0000000e+00 
8.6553359e-01 -5.5568039e-02 0.0000000e+00 
9.3270284e-01 -5.1577285e-02 0.0000000e+00 
9.4543946e-01 -3.7819076e-02 0.0000000e+00 
9.0564746e-01 -6.3848555e-02 0.0000000e+00 
8.9849615e-01 -6.4629823e-02 0.0000000e+00 
8.5039055e-01 -4.1006364e-02 0.0000000e+00 
9.1253966e-01 -6.2823720e-02 0.0000000e+00 
8.9105690e-01 -6.5122068e-02 0.0000000e+00 
8.2818848e-01 -2.8939713e-02 0.0000000e+00 
9.3741006e-01 -4.9377434e-02 0.0000000e+00 
9.5080256e-01 -3.0419219e-02 0.0000000e+00 
8.8355970e-01 -6.4844437e-02 0.0000000e+00 
9.1922092e-01 -6.1474390e-02 0.0000000e+00 
8.5826427e-01 -5.3227194e-02 0.0000000e+00 
9.6492153e-01 -2.3601044e-02 0.0000000e+00 
8.7573296e-01 -6.4071797e-02 0.0000000e+00 
9.2554110e-01 -5.9651259e-02 0.0000000e+00 
9.5548165e-01 -1.8122857e-02 0.0000000e+00 
9.4467354e-01 -4.3245196e-02 0.0000000e+00 
9.5037556e-01 -3.5658583e-02 0.0000000e+00 
8.4569484e-01 -3.6298621e-02 0.0000000e+00 
9.5547837e-01 -2.3027861e-02 0.0000000e+00 
8.5007274e-01 -5.0465275e-02 0.0000000e+00 
9.3155622e-01 -5.7679690e-02 0.0000000e+00 
8.6777669e-01 -6.2913634e-02 0.0000000e+00 
8.9261240e-01 -3.1530660e-02 0.0000000e+00 
0.0000000e+00 0.0000000e+00 0.0000000e+00 
9.5762384e-01 -1.4800010e-02 0.0000000e+00 
9.5538116e-01 -2.8079938e-02 0.0000000e+00 
9.0282440e-01 -7.0623077e-02 0.0000000e+00 
8.5973769e-01 -6.0895275e-02 0.0000000e+00 
9.1020018e-01 -6.9522470e-02 0.0000000e+00 
9.3742442e-01 -5.5359732e-02 0.0000000e+00 
8.9539516e-01 -7.1479507e-02 0.0000000e+00 
9.4282854e-01 -5.0471548e-02 0.0000000e+00 
9.4984937e-01 -4.1088790e-02 0.0000000e+00 
8.8743615e-01 -7.1604393e-02 0.0000000e+00 
9.1715050e-01 -6.8087056e-02 0.0000000e+00 
8.4192443e-01 -4.7961164e-02 0.0000000e+00 
8.1763071e-01 -2.4400223e-02 0.0000000e+00 
8.7930733e-01 -7.1428105e-02 0.0000000e+00 
9.2392242e-01 -6.6197231e-02 0.0000000e+00 
9.7733808e-01 -8.4233740e-03 0.0000000e+00 
9.5517534e-01 -3.3310816e-02 0.0000000e+00 
9.5916921e-01 -1.9843306e-02 0.0000000e+00 
8.5201406e-01 -5.7970311e-02 0.0000000e+00 
8.7074733e-01 -7.0830517e-02 0.0000000e+00 
9.3045688e-01 -6.4144693e-02 0.0000000e+00 
9.4924372e-01 -4.6730388e-02 0.0000000e+00 
9.5487434e-01 -3.8732983e-02 0.0000000e+00 
9.5984173e-01 -2.5564691e-02 0.0000000e+00 
8.3705986e-01 -4.5909889e-02 0.0000000e+00 
9.3662518e-01 -6.1710559e-02 0.0000000e+00 
8.6217946e-01 -6.9530174e-02 0.0000000e+00 
8.4408593e-01 -5.4010220e-02 0.0000000e+00 
8.6644381e-01 -1.4259779e-02 0.0000000e+00 
8.9982033e-01 -7.7836558e-02 0.0000000e+00 
9.0759546e-01 -7.6654099e-02 0.0000000e+00 
9.6253276e-01 -1.5255772e-02 0.0000000e+00 
0.0000000e+00 0.0000000e+00 0.0000000e+00 
8.9162028e-01 -7.8635760e-02 0.0000000e+00 
9.1517097e-01 -7.5146578e-02 0.0000000e+00 
9.5981848e-01 -3.0777426e-02 0.0000000e+00 
8.5313606e-01 -6.7300394e-02 0.0000000e+00 
8.8334763e-01 -7.8808911e-02 0.0000000e+00 
9.4264746e-01 -5.9138980e-02 0.0000000e+00 
9.2234898e-01 -7.3127545e-02 0.0000000e+00 
9.5450366e-01 -4.4307746e-02 0.0000000e+00 
8.0290550e-01 -4.2716473e-02 0.0000000e+00 
8.7465632e-01 -7.8682579e-02 0.0000000e+00 
8.3621240e-01 -4.9045969e-02 0.0000000e+00 
9.2907280e-01 -7.0955202e-02 0.0000000e+00 
9.4854772e-01 -5.4515261e-02 0.0000000e+00 
9.5972776e-01 -3.6175556e-02 0.0000000e+00 
1.0216938e+00 -7.4305879e-03 0.0000000e+00 
8.4428507e-01 -6.4486861e-02 0.0000000e+00 
9.6401566e-01 -2.2445573e-02 0.0000000e+00 
9.3563330e-01 -6.8375304e-02 0.0000000e+00 
8.6536938e-01 -7.7966191e-02 0.0000000e+00 
8.3522314e-01 -4.1234899e-02 0.0000000e+00 
9.6440321e-01 -2.8112523e-02 0.0000000e+00 
8.5626107e-01 -7.6188803e-02 0.0000000e+00 
9.5958060e-01 -4.1744515e-02 0.0000000e+00 
9.5408446e-01 -5.1463142e-02 0.0000000e+00 
9.4194502e-01 -6.5740854e-02 0.0000000e+00 
9.0496063e-01 -8.4280506e-02 0.0000000e+00 
8.3500963e-01 -6.1162174e-02 0.0000000e+00 
7.8269684e-01 -3.6632292e-02 0.0000000e+00 
8.9656317e-01 -8.5569754e-02 0.0000000e+00 
9.1280758e-01 -8.2629748e-02 0.0000000e+00 
9.2048198e-01 -8.0500849e-02 0.0000000e+00 
8.8785344e-01 -8.6459473e-02 0.0000000e+00 
9.6748036e-01 -1.5584668e-02 0.0000000e+00 
0.0000000e+00 0.0000000e+00 0.0000000e+00 
8.7865418e-01 -8.6490117e-02 0.0000000e+00 
9.6448952e-01 -3.3462595e-02 0.0000000e+00 
9.2785943e-01 -7.8222767e-02 0.0000000e+00 
8.4646237e-01 -7.3903032e-02 0.0000000e+00 
7.5860888e-01 5.7513565e-03 0.0000000e+00 
9.4801462e-01 -6.2459834e-02 0.0000000e+00 
9.5935661e-01 -4.7500979e-02 0.0000000e+00 
8.2061040e-01 -3.2338258e-02 0.0000000e+00 
8.6937654e-01 -8.6251408e-02 0.0000000e+00 
9.3471742e-01 -7.5481489e-02 0.0000000e+00 
9.6852350e-01 -2.0124856e-02 0.0000000e+00 
8.2328111e-01 -5.7360042e-02 0.0000000e+00 
9.2043751e-01 -2.9321933e-02 0.0000000e+00 
9.6452558e-01 -3.9010204e-02 0.0000000e+00 
8.3671677e-01 -7.0256412e-02 0.0000000e+00 
8.5930955e-01 -8.5516244e-02 0.0000000e+00 
9.6879250e-01 -2.5330802e-02 0.0000000e+00 
9.5370293e-01 -5.9694201e-02 0.0000000e+00 
9.4137180e-01 -7.2667748e-02 0.0000000e+00 
9.0192723e-01 -9.2345625e-02 0.0000000e+00 
9.1055691e-01 -9.0692788e-02 0.0000000e+00 
8.1743979e-01 -5.2164484e-02 0.0000000e+00 
9.6902394e-01 -3.0627765e-02 0.0000000e+00 
8.9287555e-01 -9.3681529e-02 0.0000000e+00 
8.4937453e-01 -8.3804175e-02 0.0000000e+00 
9.1865301e-01 -8.8389844e-02 0.0000000e+00 
9.6451992e-01 -4.4679161e-02 0.0000000e+00 
9.4766885e-01 -6.9490865e-02 0.0000000e+00 
7.7098364e-01 -2.1950467e-02 0.0000000e+00 
8.2736456e-01 -6.5721534e-02 0.0000000e+00 
8.8342834e-01 -9.4681993e-02 0.0000000e+00 
9.2625660e-01 -8.5876480e-02 0.0000000e+00 
9.5912248e-01 -5.6365382e-02 0.0000000e+00 
8.7383312e-01 -9.4823033e-02 0.0000000e+00 
9.7256082e-01 -1.5876023e-02 0.0000000e+00 
0.0000000e+00 0.0000000e+00 0.0000000e+00 
9.3356299e-01 -8.2903139e-02 0.0000000e+00 
9.6921498e-01 -3.6108267e-02 0.0000000e+00 
8.3875209e-01 -8.1167780e-02 0.0000000e+00 
8.5928601e-01 1.0883126e-03 0.0000000e+00 
9.5376253e-01 -6.6299573e-02 0.0000000e+00 
8.6392707e-01 -9.4723970e-02 0.0000000e+00 
9.7325301e-01 -2.1634344e-02 0.0000000e+00 
8.0855805e-01 -4.7220286e-02 0.0000000e+00 
9.4063103e-01 -7.9967834e-02 0.0000000e+00 
8.1618267e-01 -6.0170151e-02 0.0000000e+00 
8.7871045e-01 -8.7545663e-03 0.0000000e+00 
9.6439731e-01 -5.3046022e-02 0.0000000e+00 
9.6940362e-01 -4.1737013e-02 0.0000000e+00 
8.2767695e-01 -7.7780709e-02 0.0000000e+00 
8.5287225e-01 -9.3827471e-02 0.0000000e+00 
9.4724280e-01 -7.6532356e-02 0.0000000e+00 
9.7363281e-01 -2.7707951e-02 0.0000000e+00 
9.5940459e-01 -6.2824808e-02 0.0000000e+00 
9.0808326e-01 -9.9031731e-02 0.0000000e+00 
8.9873695e-01 -1.0105445e-01 0.0000000e+00 
9.1656655e-01 -9.6682914e-02 0.0000000e+00 
8.0867374e-01 -5.2818287e-02 0.0000000e+00 
8.8929594e-01 -1.0257452e-01 0.0000000e+00 
9.2494500e-01 -9.4099313e-02 0.0000000e+00 
9.7399735e-01 -3.3120017e-02 0.0000000e+00 
8.4218198e-01 -9.1867693e-02 0.0000000e+00 
9.5366579e-01 -7.3206864e-02 0.0000000e+00 
9.6959430e-01 -4.7550377e-02 0.0000000e+00 
8.7915438e-01 -1.0365891e-01 0.0000000e+00 
9.3267268e-01 -9.0872146e-02 0.0000000e+00 
7.5355035e-01 -4.5245923e-02 0.0000000e+00 
8.1708473e-01 -7.3856071e-02 0.0000000e+00 
9.6488947e-01 -5.9320409e-02 0.0000000e+00 
8.6849463e-01 -1.0382567e-01 0.0000000e+00 
9.4003266e-01 -8.7426104e-02 0.0000000e+00 
9.7766918e-01 -1.6111780e-02 0.0000000e+00 
0.0000000e+00 0.0000000e+00 0.0000000e+00 
8.0772871e-01 -6.7516677e-02 0.0000000e+00 
9.7437119e-01 -3.8680740e-02 0.0000000e+00 
9.5144838e-01 -1.8899230e-03 0.0000000e+00 
8.3071166e-01 -8.9149088e-02 0.0000000e+00 
9.5959097e-01 -6.9496110e-02 0.0000000e+00 
8.5784012e-01 -1.0382580e-01 0.0000000e+00 
9.4707555e-01 -8.4027529e-02 0.0000000e+00 
9.7793376e-01 -2.4667230e-02 0.0000000e+00 
8.0919087e-01 -4.5779739e-02 0.0000000e+00 
7.5544637e-01 -4.1742072e-02 0.0000000e+00 
9.6999902e-01 -5.5613872e-02 0.0000000e+00 
9.7474343e-01 -4.4398256e-02 0.0000000e+00 
8.1918907e-01 -8.5573055e-02 0.0000000e+00 
9.5364243e-01 -8.0185816e-02 0.0000000e+00 
8.4579074e-01 -1.0280816e-01 0.0000000e+00 
9.7836864e-01 -3.0026209e-02 0.0000000e+00 
9.0533626e-01 -1.0817715e-01 0.0000000e+00 
9.1470122e-01 -1.0567890e-01 0.0000000e+00 
9.2347682e-01 -1.0252554e-01 0.0000000e+00 
8.9558536e-01 -1.1047976e-01 0.0000000e+00 
9.6531147e-01 -6.5855078e-02 0.0000000e+00 
8.8549787e-01 -1.1211455e-01 0.0000000e+00 
9.3170244e-01 -9.9357843e-02 0.0000000e+00 
7.9268569e-01 -6.3618369e-02 0.0000000e+00 
8.7458527e-01 -1.1301114e-01 0.0000000e+00 
8.3431756e-01 -1.0085642e-01 0.0000000e+00 
9.7882164e-01 -3.5494462e-02 0.0000000e+00 
9.3954873e-01 -9.5630735e-02 0.0000000e+00 
7.1320719e-01 -4.2092425e-04 0.0000000e+00 
7.8488809e-01 -3.7013475e-02 0.0000000e+00 
9.5994830e-01 -7.6550245e-02 0.0000000e+00 
9.7509354e-01 -5.0329030e-02 0.0000000e+00 
8.0707479e-01 -8.0925524e-02 0.0000000e+00 
8.6311215e-01 -1.1373385e-01 0.0000000e+00 