# vtk DataFile Version 4.0
vtk output
ASCII
DATASET UNSTRUCTURED_GRID
POINTS 5817 float
1.0000000e+01 0.0000000e+00 0.0000000e+00 
9.8999996e+00 0.0000000e+00 0.0000000e+00 
1.0000000e+01 1.0000000e-01 0.0000000e+00 
9.8583298e+00 8.8835500e-02 0.0000000e+00 
9.8000002e+00 0.0000000e+00 0.0000000e+00 
1.0000000e+01 2.0000000e-01 0.0000000e+00 
9.8999996e+00 1.7320500e-01 0.0000000e+00 
9.7500000e+00 8.6602502e-02 0.0000000e+00 
9.8000002e+00 1.7320500e-01 0.0000000e+00 
1.0000000e+01 3.0000001e-01 0.0000000e+00 
9.6999998e+00 0.0000000e+00 0.0000000e+00 
9.8583298e+00 2.6650599e-01 0.0000000e+00 
9.6999998e+00 1.7320500e-01 0.0000000e+00 
9.6499996e+00 8.6602502e-02 0.0000000e+00 
9.7500000e+00 2.5980800e-01 0.0000000e+00 
9.9033298e+00 3.4808499e-01 0.0000000e+00 
1.0000000e+01 4.0000001e-01 0.0000000e+00 
9.6000004e+00 0.0000000e+00 0.0000000e+00 
9.8000002e+00 3.4641001e-01 0.0000000e+00 
9.6000004e+00 1.7320500e-01 0.0000000e+00 
9.6499996e+00 2.5980800e-01 0.0000000e+00 
9.8583298e+00 4.2751101e-01 0.0000000e+00 
9.5500002e+00 8.6602502e-02 0.0000000e+00 
9.6999998e+00 3.4641001e-01 0.0000000e+00 
1.0000000e+01 5.0000000e-01 0.0000000e+00 
9.5000000e+00 0.0000000e+00 0.0000000e+00 
9.7500000e+00 4.3301299e-01 0.0000000e+00 
9.5500002e+00 2.5980800e-01 0.0000000e+00 
9.6000004e+00 3.4641001e-01 0.0000000e+00 
9.5000000e+00 1.7320500e-01 0.0000000e+00 
9.8999996e+00 5.1961499e-01 0.0000000e+00 
9.4499998e+00 8.6602502e-02 0.0000000e+00 
9.6499996e+00 4.3301299e-01 0.0000000e+00 
9.8000002e+00 5.1961499e-01 0.0000000e+00 
1.0000000e+01 6.0000002e-01 0.0000000e+00 
9.3999996e+00 0.0000000e+00 0.0000000e+00 
9.6999998e+00 5.1961499e-01 0.0000000e+00 
9.4499998e+00 2.5980800e-01 0.0000000e+00 
9.5000000e+00 3.4641001e-01 0.0000000e+00 
9.8893099e+00 6.1410201e-01 0.0000000e+00 
9.3999996e+00 1.7320500e-01 0.0000000e+00 
9.5500002e+00 4.3301299e-01 0.0000000e+00 
9.3500004e+00 8.6602502e-02 0.0000000e+00 
9.6000004e+00 5.1961499e-01 0.0000000e+00 
9.7873602e+00 6.3313198e-01 0.0000000e+00 
9.3999996e+00 3.4641001e-01 0.0000000e+00 
9.3000002e+00 0.0000000e+00 0.0000000e+00 
1.0000000e+01 6.9999999e-01 0.0000000e+00 
9.3500004e+00 2.5980800e-01 0.0000000e+00 
9.4499998e+00 4.3301299e-01 0.0000000e+00 
9.6772203e+00 6.2931901e-01 0.0000000e+00 
9.3000002e+00 1.7320500e-01 0.0000000e+00 
9.8485203e+00 7.1224803e-01 0.0000000e+00 
9.5041599e+00 5.3742099e-01 0.0000000e+00 
9.2500000e+00 8.6602502e-02 0.0000000e+00 
9.5762100e+00 6.3882500e-01 0.0000000e+00 
9.7494297e+00 7.2565800e-01 0.0000000e+00 
9.3000002e+00 3.4641001e-01 0.0000000e+00 
9.3420296e+00 4.3454701e-01 0.0000000e+00 
9.2500000e+00 2.5980800e-01 0.0000000e+00 
9.9096899e+00 7.9136300e-01 0.0000000e+00 
1.0000000e+01 8.0000001e-01 0.0000000e+00 
9.1999998e+00 0.0000000e+00 0.0000000e+00 
9.6503296e+00 7.3906797e-01 0.0000000e+00 
9.1999998e+00 1.7320500e-01 0.0000000e+00 
9.3813105e+00 5.4442602e-01 0.0000000e+00 
9.8105898e+00 8.0477297e-01 0.0000000e+00 
9.4674196e+00 6.5563202e-01 0.0000000e+00 
9.1499996e+00 8.6602502e-02 0.0000000e+00 
9.7114897e+00 8.1818300e-01 0.0000000e+00 
9.1999998e+00 3.4641001e-01 0.0000000e+00 
9.5512304e+00 7.5247800e-01 0.0000000e+00 
9.2865801e+00 5.0924700e-01 0.0000000e+00 
9.2342796e+00 4.2777699e-01 0.0000000e+00 
9.1499996e+00 2.5980800e-01 0.0000000e+00 
9.8717499e+00 8.8388801e-01 0.0000000e+00 
1.0000000e+01 8.9999998e-01 0.0000000e+00 
9.1000004e+00 0.0000000e+00 0.0000000e+00 
9.1000004e+00 1.7320500e-01 0.0000000e+00 
9.6124001e+00 8.3159399e-01 0.0000000e+00 
9.7726603e+00 8.9729899e-01 0.0000000e+00 
9.3619204e+00 6.7122602e-01 0.0000000e+00 
9.2737198e+00 5.9348202e-01 0.0000000e+00 
9.4521399e+00 7.6588798e-01 0.0000000e+00 
9.2042999e+00 5.2308202e-01 0.0000000e+00 
9.0500002e+00 8.6602502e-02 0.0000000e+00 
9.9329100e+00 9.6300399e-01 0.0000000e+00 
9.6735601e+00 9.1070902e-01 0.0000000e+00 
9.1368198e+00 4.4975999e-01 0.0000000e+00 
9.5132999e+00 8.4500402e-01 0.0000000e+00 
9.0923996e+00 3.6564499e-01 0.0000000e+00 
9.0500002e+00 2.5980800e-01 0.0000000e+00 
9.8338203e+00 9.7641402e-01 0.0000000e+00 
1.0000000e+01 1.0000000e+00 0.0000000e+00 
9.0000000e+00 0.0000000e+00 0.0000000e+00 
9.3530397e+00 7.7929902e-01 0.0000000e+00 
9.0000000e+00 1.7320500e-01 0.0000000e+00 
9.5744600e+00 9.2411900e-01 0.0000000e+00 
9.2438698e+00 6.8863100e-01 0.0000000e+00 
9.7347202e+00 9.8982400e-01 0.0000000e+00 
9.1771202e+00 6.1455202e-01 0.0000000e+00 
9.4141998e+00 8.5841399e-01 0.0000000e+00 
9.1068001e+00 5.4364800e-01 0.0000000e+00 
9.9044905e+00 1.0417700e+00 0.0000000e+00 
8.9499998e+00 8.6602502e-02 0.0000000e+00 
9.6356201e+00 1.0032300e+00 0.0000000e+00 
9.0417004e+00 4.7562101e-01 0.0000000e+00 
9.4753599e+00 9.3752903e-01 0.0000000e+00 
8.9499998e+00 2.5980800e-01 0.0000000e+00 
8.9784098e+00 3.7431899e-01 0.0000000e+00 
9.7958803e+00 1.0689400e+00 0.0000000e+00 
1.0000000e+01 1.1000000e+00 0.0000000e+00 
8.8999996e+00 0.0000000e+00 0.0000000e+00 
9.2132702e+00 7.8782201e-01 0.0000000e+00 
9.1461802e+00 7.1470100e-01 0.0000000e+00 
8.8999996e+00 1.7320500e-01 0.0000000e+00 
9.5365295e+00 1.0166399e+00 0.0000000e+00 
9.0804300e+00 6.3953602e-01 0.0000000e+00 
9.6967897e+00 1.0823500e+00 0.0000000e+00 
9.2791595e+00 8.6298501e-01 0.0000000e+00 
9.3762703e+00 9.5093900e-01 0.0000000e+00 
9.0110798e+00 5.7062602e-01 0.0000000e+00 
9.8643503e+00 1.1422800e+00 0.0000000e+00 
8.8500004e+00 8.6602502e-02 0.0000000e+00 
8.8924799e+00 3.3931199e-01 0.0000000e+00 
8.9442501e+00 4.9722099e-01 0.0000000e+00 
9.5976896e+00 1.0957600e+00 0.0000000e+00 
9.4374304e+00 1.0300500e+00 0.0000000e+00 
8.8500004e+00 2.5980800e-01 0.0000000e+00 
9.7579498e+00 1.1614600e+00 0.0000000e+00 
9.1158600e+00 8.0676198e-01 0.0000000e+00 
8.8780699e+00 4.2282000e-01 0.0000000e+00 
1.0000000e+01 1.2000000e+00 0.0000000e+00 
8.8000002e+00 0.0000000e+00 0.0000000e+00 
9.0481195e+00 7.3358703e-01 0.0000000e+00 
9.1810904e+00 8.8230300e-01 0.0000000e+00 
9.2557602e+00 9.4870597e-01 0.0000000e+00 
8.9842997e+00 6.5732199e-01 0.0000000e+00 
8.8000002e+00 1.7320500e-01 0.0000000e+00 
9.4985905e+00 1.1091700e+00 0.0000000e+00 
9.6588497e+00 1.1748700e+00 0.0000000e+00 
9.9182100e+00 1.2271700e+00 0.0000000e+00 
9.3251104e+00 1.0312500e+00 0.0000000e+00 
8.9135799e+00 5.8930397e-01 0.0000000e+00 
8.8084297e+00 3.5165700e-01 0.0000000e+00 
8.7500000e+00 8.6602502e-02 0.0000000e+00 
9.8191099e+00 1.2405800e+00 0.0000000e+00 
9.3931599e+00 1.1044700e+00 0.0000000e+00 
8.8464403e+00 5.1585698e-01 0.0000000e+00 
9.5597496e+00 1.1882800e+00 0.0000000e+00 
8.7500000e+00 2.5980800e-01 0.0000000e+00 
9.0928097e+00 9.0680802e-01 0.0000000e+00 
9.0184002e+00 8.2787198e-01 0.0000000e+00 
9.7200098e+00 1.2539901e+00 0.0000000e+00 
8.9546299e+00 7.5233299e-01 0.0000000e+00 
9.1608400e+00 9.7992098e-01 0.0000000e+00 
8.7830696e+00 4.4794399e-01 0.0000000e+00 
1.0000000e+01 1.3000000e+00 0.0000000e+00 
8.6999998e+00 0.0000000e+00 0.0000000e+00 
8.8883896e+00 6.7804497e-01 0.0000000e+00 
9.2278700e+00 1.0539600e+00 0.0000000e+00 
9.4606600e+00 1.2017000e+00 0.0000000e+00 
8.6918802e+00 1.9270100e-01 0.0000000e+00 
9.6209202e+00 1.2674000e+00 0.0000000e+00 
9.8934698e+00 1.3188500e+00 0.0000000e+00 
9.2957001e+00 1.1266800e+00 0.0000000e+00 
8.8160496e+00 6.0906202e-01 0.0000000e+00 
8.7121201e+00 3.7280300e-01 0.0000000e+00 
9.7811699e+00 1.3331100e+00 0.0000000e+00 
9.3628101e+00 1.2006400e+00 0.0000000e+00 
8.7522202e+00 5.4296398e-01 0.0000000e+00 
8.9969301e+00 9.2822403e-01 0.0000000e+00 
9.5218201e+00 1.2808100e+00 0.0000000e+00 
9.0639296e+00 1.0024101e+00 0.0000000e+00 
8.9203396e+00 8.4596699e-01 0.0000000e+00 
8.6267500e+00 1.0301200e-01 0.0000000e+00 
8.8568802e+00 7.7282602e-01 0.0000000e+00 
9.1301403e+00 1.0745500e+00 0.0000000e+00 
9.6820803e+00 1.3465199e+00 0.0000000e+00 
8.6461897e+00 3.0343899e-01 0.0000000e+00 
8.6854296e+00 4.6907300e-01 0.0000000e+00 
8.7924404e+00 7.0606899e-01 0.0000000e+00 
1.0000000e+01 1.4000000e+00 0.0000000e+00 
8.6000004e+00 0.0000000e+00 0.0000000e+00 
9.1987696e+00 1.1492000e+00 0.0000000e+00 
9.4227200e+00 1.2942200e+00 0.0000000e+00 
9.8423405e+00 1.4122200e+00 0.0000000e+00 
9.5829802e+00 1.3599300e+00 0.0000000e+00 
9.2651100e+00 1.2213700e+00 0.0000000e+00 
8.7203903e+00 6.3765901e-01 0.0000000e+00 
8.5783300e+00 2.3014100e-01 0.0000000e+00 
8.6154900e+00 3.9815599e-01 0.0000000e+00 
9.7432404e+00 1.4256300e+00 0.0000000e+00 
8.8996496e+00 9.4893199e-01 0.0000000e+00 
8.9663000e+00 1.0233800e+00 0.0000000e+00 
9.3332996e+00 1.2944700e+00 0.0000000e+00 
8.6545601e+00 5.6251901e-01 0.0000000e+00 
8.8232002e+00 8.6615598e-01 0.0000000e+00 
9.0328102e+00 1.0973001e+00 0.0000000e+00 
8.5388403e+00 7.1274497e-02 0.0000000e+00 
9.4838800e+00 1.3733400e+00 0.0000000e+00 
8.7642403e+00 8.0582702e-01 0.0000000e+00 
9.1010399e+00 1.1701699e+00 0.0000000e+00 
9.6441402e+00 1.4390399e+00 0.0000000e+00 
8.5491400e+00 3.2567400e-01 0.0000000e+00 
8.5171900e+00 1.6373500e-01 0.0000000e+00 
8.5903702e+00 4.9454200e-01 0.0000000e+00 
8.6965504e+00 7.3207003e-01 0.0000000e+00 
9.1679201e+00 1.2442800e+00 0.0000000e+00 
1.0000000e+01 1.5000000e+00 0.0000000e+00 
8.5000000e+00 0.0000000e+00 0.0000000e+00 
9.9187202e+00 1.5001400e+00 0.0000000e+00 
9.3847904e+00 1.3867500e+00 0.0000000e+00 
9.8044004e+00 1.5047500e+00 0.0000000e+00 
8.6287603e+00 6.5904301e-01 0.0000000e+00 
9.5450497e+00 1.4524500e+00 0.0000000e+00 
9.2358704e+00 1.3168499e+00 0.0000000e+00 
8.5254898e+00 4.2105001e-01 0.0000000e+00 
8.4849596e+00 2.5780100e-01 0.0000000e+00 
8.8687496e+00 1.0439600e+00 0.0000000e+00 
8.9374199e+00 1.1185300e+00 0.0000000e+00 
9.7053099e+00 1.5181600e+00 0.0000000e+00 
8.7996702e+00 9.7555703e-01 0.0000000e+00 
8.4502602e+00 8.9625701e-02 0.0000000e+00 
9.0043802e+00 1.1929899e+00 0.0000000e+00 
[...]
POINT_DATA 5817
FIELD FieldData 2
VELOCITY 3 5817  float
0.0000000e+00 0.0000000e+00 0.0000000e+00 
0.0000000e+00 0.0000000e+00 0.0000000e+00 
1.1487254e+00 3.8769756e-02 0.0000000e+00 
1.1254066e+00 2.0445129e-02 0.0000000e+00 
0.0000000e+00 0.0000000e+00 0.0000000e+00 
8.2835835e-01 -5.9102075e-03 0.0000000e+00 
8.4326071e-01 5.3743795e-03 0.0000000e+00 
1.1227160e+00 3.0252412e-03 0.0000000e+00 
8.3513427e-01 4.1683936e-03 0.0000000e+00 
9.4070327e-01 1.2556594e-02 0.0000000e+00 
0.0000000e+00 0.0000000e+00 0.0000000e+00 
9.1934192e-01 3.7696501e-03 0.0000000e+00 
8.3279753e-01 8.8208303e-04 0.0000000e+00 
1.1237979e+00 3.0605594e-04 0.0000000e+00 
9.1419995e-01 -5.3882544e-05 0.0000000e+00 
9.0120375e-01 -3.4985472e-03 0.0000000e+00 
9.0311074e-01 -5.2906005e-03 0.0000000e+00 
0.0000000e+00 0.0000000e+00 0.0000000e+00 
8.9867938e-01 -1.7984755e-03 0.0000000e+00 
8.3005965e-01 -2.3674497e-03 0.0000000e+00 
9.1062891e-01 -3.7800020e-03 0.0000000e+00 
9.0833169e-01 -3.0184221e-03 0.0000000e+00 
1.1218373e+00 -1.1620710e-03 0.0000000e+00 
8.9551872e-01 -5.0097741e-03 0.0000000e+00 
9.1422004e-01 -4.2007500e-03 0.0000000e+00 
0.0000000e+00 0.0000000e+00 0.0000000e+00 
9.0418398e-01 -6.5885112e-03 0.0000000e+00 
9.0702665e-01 -6.0920129e-03 0.0000000e+00 
8.9274013e-01 -7.8152940e-03 0.0000000e+00 
8.2784736e-01 -4.5794253e-03 0.0000000e+00 
9.1319162e-01 -4.7706659e-03 0.0000000e+00 
1.1171408e+00 -2.5220073e-03 0.0000000e+00 
9.0052807e-01 -9.1397995e-03 0.0000000e+00 
9.0757895e-01 -8.7761562e-03 0.0000000e+00 
9.1450942e-01 -5.8638048e-03 0.0000000e+00 
0.0000000e+00 0.0000000e+00 0.0000000e+00 
9.0418905e-01 -1.0922239e-02 0.0000000e+00 
9.0248775e-01 -7.9922378e-03 0.0000000e+00 
8.8994592e-01 -1.0565681e-02 0.0000000e+00 
9.1088760e-01 -9.3667097e-03 0.0000000e+00 
8.2664812e-01 -6.6144448e-03 0.0000000e+00 
8.9681894e-01 -1.1890771e-02 0.0000000e+00 
1.1095450e+00 -4.0593976e-03 0.0000000e+00 
9.0079170e-01 -1.3725206e-02 0.0000000e+00 
9.0943390e-01 -1.1935876e-02 0.0000000e+00 
8.8700616e-01 -1.3178766e-02 0.0000000e+00 
0.0000000e+00 0.0000000e+00 0.0000000e+00 
9.1602850e-01 -8.6068064e-03 0.0000000e+00 
8.9671201e-01 -9.5254071e-03 0.0000000e+00 
8.9294541e-01 -1.4637310e-02 0.0000000e+00 
9.0625024e-01 -1.4952657e-02 0.0000000e+00 
8.2716256e-01 -8.8396184e-03 0.0000000e+00 
9.1354030e-01 -1.2218386e-02 0.0000000e+00 
8.9794546e-01 -1.7148640e-02 0.0000000e+00 
1.0983745e+00 -6.0228352e-03 0.0000000e+00 
9.0343320e-01 -1.8294133e-02 0.0000000e+00 
9.1127896e-01 -1.5581456e-02 0.0000000e+00 
8.8370478e-01 -1.5783422e-02 0.0000000e+00 
8.8846892e-01 -1.7671064e-02 0.0000000e+00 
8.8965827e-01 -1.0854956e-02 0.0000000e+00 
9.1697097e-01 -1.2344701e-02 0.0000000e+00 
9.1871470e-01 -1.0044388e-02 0.0000000e+00 
0.0000000e+00 0.0000000e+00 0.0000000e+00 
9.0890950e-01 -1.9008001e-02 0.0000000e+00 
8.3038586e-01 -1.1637736e-02 0.0000000e+00 
8.9365155e-01 -2.1169899e-02 0.0000000e+00 
9.1506410e-01 -1.5669560e-02 0.0000000e+00 
9.0037638e-01 -2.2385135e-02 0.0000000e+00 
1.0826795e+00 -8.6431773e-03 0.0000000e+00 
9.1314638e-01 -1.9140417e-02 0.0000000e+00 
8.7979895e-01 -1.8400131e-02 0.0000000e+00 
9.0635490e-01 -2.2736091e-02 0.0000000e+00 
8.8868725e-01 -2.2693502e-02 0.0000000e+00 
8.8334292e-01 -2.0405354e-02 0.0000000e+00 
8.8135439e-01 -1.2149247e-02 0.0000000e+00 
9.1880667e-01 -1.5360973e-02 0.0000000e+00 
9.2146814e-01 -1.1600582e-02 0.0000000e+00 
0.0000000e+00 0.0000000e+00 0.0000000e+00 
8.3713251e-01 -1.5264443e-02 0.0000000e+00 
9.1098750e-01 -2.2916619e-02 0.0000000e+00 
9.1729474e-01 -1.8923063e-02 0.0000000e+00 
8.9706749e-01 -2.6568986e-02 0.0000000e+00 
8.9099532e-01 -2.6529621e-02 0.0000000e+00 
9.0361822e-01 -2.6712485e-02 0.0000000e+00 
8.8560373e-01 -2.5881063e-02 0.0000000e+00 
1.0607742e+00 -1.2116009e-02 0.0000000e+00 
9.2259073e-01 -1.4697762e-02 0.0000000e+00 
9.1547090e-01 -2.2777565e-02 0.0000000e+00 
8.7955439e-01 -2.4341980e-02 0.0000000e+00 
9.0860265e-01 -2.6950667e-02 0.0000000e+00 
8.7418360e-01 -2.2368908e-02 0.0000000e+00 
8.7284249e-01 -1.3834219e-02 0.0000000e+00 
9.2134154e-01 -1.8372750e-02 0.0000000e+00 
9.2477000e-01 -1.2932157e-02 0.0000000e+00 
0.0000000e+00 0.0000000e+00 0.0000000e+00 
9.0064532e-01 -3.0923301e-02 0.0000000e+00 
8.4838682e-01 -1.9690596e-02 0.0000000e+00 
9.1340762e-01 -2.6885295e-02 0.0000000e+00 
8.9307803e-01 -3.1598188e-02 0.0000000e+00 
9.1984326e-01 -2.2314504e-02 0.0000000e+00 
8.8748389e-01 -3.0807877e-02 0.0000000e+00 
9.0597838e-01 -3.1223431e-02 0.0000000e+00 
8.8187248e-01 -3.0108510e-02 0.0000000e+00 
9.2493778e-01 -1.6930398e-02 0.0000000e+00 
1.0339383e+00 -1.5747897e-02 0.0000000e+00 
9.1810876e-01 -2.6492463e-02 0.0000000e+00 
8.7629652e-01 -2.8680583e-02 0.0000000e+00 
9.1112781e-01 -3.1241802e-02 0.0000000e+00 
8.6352569e-01 -1.5947709e-02 0.0000000e+00 
8.6814582e-01 -2.6437052e-02 0.0000000e+00 
9.2412215e-01 -2.1514483e-02 0.0000000e+00 
9.2834860e-01 -1.4169260e-02 0.0000000e+00 
0.0000000e+00 0.0000000e+00 0.0000000e+00 
8.9562267e-01 -3.6812749e-02 0.0000000e+00 
8.8984531e-01 -3.6499660e-02 0.0000000e+00 
8.6175245e-01 -2.1866044e-02 0.0000000e+00 
9.1615486e-01 -3.0912021e-02 0.0000000e+00 
8.8382030e-01 -3.5596710e-02 0.0000000e+00 
9.2270935e-01 -2.5779573e-02 0.0000000e+00 
9.0151590e-01 -3.6987215e-02 0.0000000e+00 
9.0858829e-01 -3.5876907e-02 0.0000000e+00 
8.7792397e-01 -3.4850653e-02 0.0000000e+00 
9.2818034e-01 -1.9984370e-02 0.0000000e+00 
9.9819738e-01 -1.8987332e-02 0.0000000e+00 
8.6104006e-01 -2.7260434e-02 0.0000000e+00 
8.7180626e-01 -3.3159476e-02 0.0000000e+00 
9.2108643e-01 -3.0271202e-02 0.0000000e+00 
9.1397369e-01 -3.5594773e-02 0.0000000e+00 
8.5557348e-01 -1.9933295e-02 0.0000000e+00 
9.2719769e-01 -2.4745516e-02 0.0000000e+00 
8.9238590e-01 -4.1805677e-02 0.0000000e+00 
8.6555922e-01 -3.1519480e-02 0.0000000e+00 
9.3226713e-01 -1.5287140e-02 0.0000000e+00 
0.0000000e+00 0.0000000e+00 0.0000000e+00 
8.8616794e-01 -4.1408066e-02 0.0000000e+00 
8.9851189e-01 -4.2059109e-02 0.0000000e+00 
9.0435326e-01 -4.1184526e-02 0.0000000e+00 
8.7986356e-01 -4.0351428e-02 0.0000000e+00 
8.7983847e-01 -2.5883038e-02 0.0000000e+00 
9.1923934e-01 -3.5011232e-02 0.0000000e+00 
9.2588633e-01 -2.9309014e-02 0.0000000e+00 
9.3242359e-01 -1.8977536e-02 0.0000000e+00 
9.1057849e-01 -4.0788539e-02 0.0000000e+00 
8.7349492e-01 -3.9702907e-02 0.0000000e+00 
8.5477859e-01 -2.9872239e-02 0.0000000e+00 
9.8022085e-01 -2.8151970e-02 0.0000000e+00 
9.3160689e-01 -2.3420589e-02 0.0000000e+00 
9.1616899e-01 -3.9820429e-02 0.0000000e+00 
8.6717385e-01 -3.8376395e-02 0.0000000e+00 
9.2437220e-01 -3.4108300e-02 0.0000000e+00 
8.4274548e-01 -2.0587748e-02 0.0000000e+00 
8.9599514e-01 -4.7167998e-02 0.0000000e+00 
8.8895458e-01 -4.7124680e-02 0.0000000e+00 
9.3060225e-01 -2.8047629e-02 0.0000000e+00 
8.8239872e-01 -4.6298839e-02 0.0000000e+00 
9.0227532e-01 -4.6839572e-02 0.0000000e+00 
8.6240214e-01 -3.7311576e-02 0.0000000e+00 
9.3641895e-01 -1.6302530e-02 0.0000000e+00 
0.0000000e+00 0.0000000e+00 0.0000000e+00 
8.7577671e-01 -4.5211464e-02 0.0000000e+00 
9.0838283e-01 -4.6259392e-02 0.0000000e+00 
9.2264497e-01 -3.9169658e-02 0.0000000e+00 
8.7370247e-01 -1.8352466e-02 0.0000000e+00 
9.2939031e-01 -3.2899745e-02 0.0000000e+00 
9.3611485e-01 -2.1218356e-02 0.0000000e+00 
9.1429049e-01 -4.5268379e-02 0.0000000e+00 
8.6896724e-01 -4.4097278e-02 0.0000000e+00 
8.5126328e-01 -3.7474375e-02 0.0000000e+00 
9.3523324e-01 -2.6500417e-02 0.0000000e+00 
9.2001045e-01 -4.4043448e-02 0.0000000e+00 
8.6254305e-01 -4.2117991e-02 0.0000000e+00 
8.9280641e-01 -5.2838620e-02 0.0000000e+00 
9.2799723e-01 -3.7990082e-02 0.0000000e+00 
8.9950556e-01 -5.2622430e-02 0.0000000e+00 
8.8504952e-01 -5.2719016e-02 0.0000000e+00 
9.9055541e-01 -1.9521842e-02 0.0000000e+00 
8.7812537e-01 -5.1940106e-02 0.0000000e+00 
9.0591079e-01 -5.2019943e-02 0.0000000e+00 
9.3429708e-01 -3.1414054e-02 0.0000000e+00 
8.2749850e-01 -3.5469502e-02 0.0000000e+00 
8.5896182e-01 -3.8698800e-02 0.0000000e+00 
8.7140357e-01 -5.1212046e-02 0.0000000e+00 
9.4088244e-01 -1.7275287e-02 0.0000000e+00 
0.0000000e+00 0.0000000e+00 0.0000000e+00 
9.1231978e-01 -5.1029384e-02 0.0000000e+00 
9.2640781e-01 -4.3366045e-02 0.0000000e+00 
9.3981183e-01 -2.4675693e-02 0.0000000e+00 
9.3318522e-01 -3.6534265e-02 0.0000000e+00 
9.1829503e-01 -4.9753901e-02 0.0000000e+00 
8.6397648e-01 -5.0396979e-02 0.0000000e+00 
8.3073926e-01 -4.0259719e-02 0.0000000e+00 
8.5628092e-01 -3.5053421e-02 0.0000000e+00 
9.3914002e-01 -2.9669864e-02 0.0000000e+00 
8.8927603e-01 -5.8857840e-02 0.0000000e+00 
8.9642233e-01 -5.8728602e-02 0.0000000e+00 
9.2417061e-01 -4.8133422e-02 0.0000000e+00 
8.5556400e-01 -4.8469838e-02 0.0000000e+00 
8.8104790e-01 -5.8604326e-02 0.0000000e+00 
9.0336806e-01 -5.8185026e-02 0.0000000e+00 
7.7139705e-01 -1.2611496e-02 0.0000000e+00 
9.3190771e-01 -4.1908566e-02 0.0000000e+00 
8.7458271e-01 -5.8125798e-02 0.0000000e+00 
9.1006887e-01 -5.7128321e-02 0.0000000e+00 
9.3831331e-01 -3.4829848e-02 0.0000000e+00 
8.3903563e-01 -2.9827114e-02 0.0000000e+00 
9.2094558e-01 -5.7234112e-02 0.0000000e+00 
8.4821481e-01 -4.6388343e-02 0.0000000e+00 
8.6704922e-01 -5.6903135e-02 0.0000000e+00 
9.1655642e-01 -5.5853322e-02 0.0000000e+00 
9.4547749e-01 -1.8076692e-02 0.0000000e+00 
0.0000000e+00 0.0000000e+00 0.0000000e+00 
9.4479734e-01 -2.2007089e-02 0.0000000e+00 
9.3046165e-01 -4.7575001e-02 0.0000000e+00 
9.4376963e-01 -2.7647479e-02 0.0000000e+00 
8.5959303e-01 -5.5063587e-02 0.0000000e+00 
9.3731159e-01 -4.0215187e-02 0.0000000e+00 
9.2276031e-01 -5.4160941e-02 0.0000000e+00 
8.4548634e-01 -4.3349925e-02 0.0000000e+00 
8.2935810e-01 -2.5335919e-02 0.0000000e+00 
8.9307189e-01 -6.5221824e-02 0.0000000e+00 
9.0061092e-01 -6.4572938e-02 0.0000000e+00 
9.4321048e-01 -3.2844063e-02 0.0000000e+00 
8.8559979e-01 -6.5750912e-02 0.0000000e+00 
8.5320288e-01 -4.4837300e-02 0.0000000e+00 
9.0778214e-01 -6.3611642e-02 0.0000000e+00 
8.7782276e-01 -6.5404974e-02 0.0000000e+00 
9.2875278e-01 -5.2280486e-02 0.0000000e+00 
8.5159796e-01 -5.2902550e-02 0.0000000e+00 
9.3617260e-01 -4.5853820e-02 0.0000000e+00 
8.6964822e-01 -6.4549066e-02 0.0000000e+00 
9.1449994e-01 -6.2261056e-02 0.0000000e+00 
9.4250256e-01 -3.8257904e-02 0.0000000e+00 
8.3298290e-01 -3.9659496e-02 0.0000000e+00 
9.4842404e-01 -2.5426589e-02 0.0000000e+00 
8.6141354e-01 -6.3225985e-02 0.0000000e+00 
9.2469299e-01 -3.0798391e-02 0.0000000e+00 
9.2112201e-01 -6.0488604e-02 0.0000000e+00 
8.4280372e-01 -4.9788248e-02 0.0000000e+00 
9.5033920e-01 -1.8892221e-02 0.0000000e+00 
0.0000000e+00 0.0000000e+00 0.0000000e+00 
9.4808769e-01 -3.0643750e-02 0.0000000e+00 
9.3489742e-01 -5.1782649e-02 0.0000000e+00 
8.5347146e-01 -6.1599299e-02 0.0000000e+00 
9.2748427e-01 -5.8563434e-02 0.0000000e+00 
9.4165909e-01 -4.3883290e-02 0.0000000e+00 
8.9753670e-01 -7.1479738e-02 0.0000000e+00 
8.8964999e-01 -7.2206467e-02 0.0000000e+00 
8.3765048e-01 -4.5913808e-02 0.0000000e+00 
9.0514570e-01 -7.0484906e-02 0.0000000e+00 
8.8143235e-01 -7.2608694e-02 0.0000000e+00 
8.1406909e-01 -3.1883523e-02 0.0000000e+00 
9.3266892e-01 -5.6262132e-02 0.0000000e+00 
9.4761747e-01 -3.6058489e-02 0.0000000e+00 
8.7318957e-01 -7.2177254e-02 0.0000000e+00 
9.1250759e-01 -6.9128923e-02 0.0000000e+00 
8.4540981e-01 -5.8812600e-02 0.0000000e+00 
9.2782956e-01 -1.9844005e-02 0.0000000e+00 
8.6451143e-01 -7.1182266e-02 0.0000000e+00 
9.1947299e-01 -6.7252316e-02 0.0000000e+00 
9.5298463e-01 -2.3015959e-02 0.0000000e+00 
9.4070148e-01 -4.9749788e-02 0.0000000e+00 
9.4703567e-01 -4.1684169e-02 0.0000000e+00 
8.2819068e-01 -4.1105982e-02 0.0000000e+00 
9.5283693e-01 -2.8244747e-02 0.0000000e+00 
8.3638644e-01 -5.5513285e-02 0.0000000e+00 
9.2610478e-01 -6.5210804e-02 0.0000000e+00 
8.5574085e-01 -6.9783263e-02 0.0000000e+00 
8.8859677e-01 -3.5131197e-02 0.0000000e+00 
0.0000000e+00 0.0000000e+00 0.0000000e+00 
9.5534295e-01 -1.9519614e-02 0.0000000e+00 
9.5260185e-01 -3.3656135e-02 0.0000000e+00 
8.9430445e-01 -7.8889154e-02 0.0000000e+00 
8.4685183e-01 -6.7427032e-02 0.0000000e+00 
9.0245092e-01 -7.7808775e-02 0.0000000e+00 
9.3255335e-01 -6.2797524e-02 0.0000000e+00 
8.8609982e-01 -7.9704307e-02 0.0000000e+00 
9.3853569e-01 -5.7572510e-02 0.0000000e+00 
9.4636250e-01 -4.7519591e-02 0.0000000e+00 
8.7731850e-01 -7.9705574e-02 0.0000000e+00 
9.1011202e-01 -7.6351345e-02 0.0000000e+00 
8.2889080e-01 -5.2224651e-02 0.0000000e+00 
7.9971379e-01 -3.0307548e-02 0.0000000e+00 
8.6838406e-01 -7.9390518e-02 0.0000000e+00 
9.1757751e-01 -7.4398726e-02 0.0000000e+00 
9.4050258e-01 -1.5479459e-02 0.0000000e+00 
9.5225841e-01 -3.9269321e-02 0.0000000e+00 
9.5684612e-01 -2.4947122e-02 0.0000000e+00 
8.3833021e-01 -6.4109325e-02 0.0000000e+00 
8.5888833e-01 -7.8585133e-02 0.0000000e+00 
9.2478025e-01 -7.2265007e-02 0.0000000e+00 
9.4558209e-01 -5.3647816e-02 0.0000000e+00 
9.5182765e-01 -4.5067541e-02 0.0000000e+00 
9.5744050e-01 -3.1060493e-02 0.0000000e+00 
8.2203257e-01 -4.8733260e-02 0.0000000e+00 
9.3155670e-01 -6.9715351e-02 0.0000000e+00 
8.4947157e-01 -7.7022366e-02 0.0000000e+00 
8.2917339e-01 -5.9724398e-02 0.0000000e+00 
8.6211151e-01 -1.9922491e-02 0.0000000e+00 
8.9087576e-01 -8.6788200e-02 0.0000000e+00 
8.9946520e-01 -8.5612625e-02 0.0000000e+00 
9.6052456e-01 -2.0137515e-02 0.0000000e+00 
0.0000000e+00 0.0000000e+00 0.0000000e+00 
8.8181573e-01 -8.7532729e-02 0.0000000e+00 
9.0781581e-01 -8.4075101e-02 0.0000000e+00 
9.5730668e-01 -3.6654014e-02 0.0000000e+00 
8.3947068e-01 -7.4424788e-02 0.0000000e+00 
8.7268800e-01 -8.7587960e-02 0.0000000e+00 
9.3816823e-01 -6.7011066e-02 0.0000000e+00 
9.1573131e-01 -8.1976451e-02 0.0000000e+00 
9.5131719e-01 -5.1101588e-02 0.0000000e+00 
7.8441459e-01 -4.4053048e-02 0.0000000e+00 
8.6313832e-01 -8.7323368e-02 0.0000000e+00 
8.2096440e-01 -5.4499846e-02 0.0000000e+00 
9.2314732e-01 -7.9704441e-02 0.0000000e+00 
9.4466662e-01 -6.2083937e-02 0.0000000e+00 
9.5710343e-01 -4.2434849e-02 0.0000000e+00 
9.9069363e-01 -7.3308847e-03 0.0000000e+00 
8.2984638e-01 -7.1229309e-02 0.0000000e+00 
9.6195334e-01 -2.7812231e-02 0.0000000e+00 
9.3035239e-01 -7.6984182e-02 0.0000000e+00 
8.5283440e-01 -8.6374521e-02 0.0000000e+00 
8.1930679e-01 -4.6652138e-02 0.0000000e+00 
9.6226436e-01 -3.3877958e-02 0.0000000e+00 
8.4283346e-01 -8.4273666e-02 0.0000000e+00 
9.5684069e-01 -4.8404176e-02 0.0000000e+00 
9.5073980e-01 -5.8873076e-02 0.0000000e+00 
9.3730456e-01 -7.4204393e-02 0.0000000e+00 
8.9644450e-01 -9.3964010e-02 0.0000000e+00 
8.1936586e-01 -6.7357972e-02 0.0000000e+00 
7.7940273e-01 -3.4865592e-02 0.0000000e+00 
8.8716739e-01 -9.5261700e-02 0.0000000e+00 
9.0509850e-01 -9.2269443e-02 0.0000000e+00 
9.1356575e-01 -9.0043306e-02 0.0000000e+00 
8.7753010e-01 -9.6101291e-02 0.0000000e+00 
9.6576899e-01 -2.0554550e-02 0.0000000e+00 
0.0000000e+00 0.0000000e+00 0.0000000e+00 
8.6739171e-01 -9.6008711e-02 0.0000000e+00 
9.6226197e-01 -3.9623097e-02 0.0000000e+00 
9.2170531e-01 -8.7652102e-02 0.0000000e+00 
8.3201522e-01 -8.1611194e-02 0.0000000e+00 
7.2184253e-01 9.8227169e-03 0.0000000e+00 
9.4397420e-01 -7.0708662e-02 0.0000000e+00 
9.5651370e-01 -5.4658882e-02 0.0000000e+00 
7.9671621e-01 -3.8614772e-02 0.0000000e+00 
8.5717565e-01 -9.5627345e-02 0.0000000e+00 
9.2924768e-01 -8.4741488e-02 0.0000000e+00 
9.6678275e-01 -2.5436049e-02 0.0000000e+00 
8.0705988e-01 -6.2716991e-02 0.0000000e+00 
9.0670574e-01 -2.4821242e-02 0.0000000e+00 
9.6221727e-01 -4.5539927e-02 0.0000000e+00 
8.2138819e-01 -7.7493705e-02 0.0000000e+00 
8.4600508e-01 -9.4661690e-02 0.0000000e+00 
9.6698314e-01 -3.0970603e-02 0.0000000e+00 
9.5021552e-01 -6.7777827e-02 0.0000000e+00 
9.3659973e-01 -8.1753246e-02 0.0000000e+00 
8.9298940e-01 -1.0280277e-01 0.0000000e+00 
9.0250587e-01 -1.0110253e-01 0.0000000e+00 
8.0280632e-01 -5.6532919e-02 0.0000000e+00 
9.6715564e-01 -3.6647048e-02 0.0000000e+00 
8.8298416e-01 -1.0415460e-01 0.0000000e+00 
8.3508044e-01 -9.2636071e-02 0.0000000e+00 
9.1144413e-01 -9.8683611e-02 0.0000000e+00 
9.6213186e-01 -5.1653836e-02 0.0000000e+00 
9.4350958e-01 -7.8361876e-02 0.0000000e+00 
7.5270671e-01 -2.8693305e-02 0.0000000e+00 
8.1076574e-01 -7.2339438e-02 0.0000000e+00 
8.7252080e-01 -1.0510205e-01 0.0000000e+00 
9.1984963e-01 -9.6025571e-02 0.0000000e+00 
9.5615244e-01 -6.4242497e-02 0.0000000e+00 
8.6197418e-01 -1.0516027e-01 0.0000000e+00 
9.7115415e-01 -2.0995967e-02 0.0000000e+00 
0.0000000e+00 0.0000000e+00 0.0000000e+00 
9.2789221e-01 -9.2855468e-02 0.0000000e+00 
9.6730775e-01 -4.2508531e-02 0.0000000e+00 
8.2338786e-01 -8.9593381e-02 0.0000000e+00 
8.1998187e-01 -1.8391890e-03 0.0000000e+00 
9.5020223e-01 -7.4964210e-02 0.0000000e+00 
8.5101140e-01 -1.0492116e-01 0.0000000e+00 
9.7181737e-01 -2.7111340e-02 0.0000000e+00 
7.8958035e-01 -5.0208721e-02 0.0000000e+00 
9.3570948e-01 -8.9735903e-02 0.0000000e+00 
7.9806244e-01 -6.6304147e-02 0.0000000e+00 
8.6359209e-01 -1.6975412e-02 0.0000000e+00 
9.6189916e-01 -6.0712032e-02 0.0000000e+00 
9.6745175e-01 -4.8538674e-02 0.0000000e+00 
8.1129724e-01 -8.5702531e-02 0.0000000e+00 
8.3877540e-01 -1.0374521e-01 0.0000000e+00 
9.4295424e-01 -8.6050048e-02 0.0000000e+00 
9.7214299e-01 -3.3575222e-02 0.0000000e+00 
9.5638400e-01 -7.1252823e-02 0.0000000e+00 
8.9966422e-01 -1.1025132e-01 0.0000000e+00 
8.8936549e-01 -1.1235651e-01 0.0000000e+00 
9.0905333e-01 -1.0777227e-01 0.0000000e+00 
7.9170835e-01 -5.8436725e-02 0.0000000e+00 
8.7890828e-01 -1.1390257e-01 0.0000000e+00 
9.1830039e-01 -1.0503864e-01 0.0000000e+00 
9.7247446e-01 -3.9366040e-02 0.0000000e+00 
8.2701844e-01 -1.0139940e-01 0.0000000e+00 
9.5000803e-01 -8.2500659e-02 0.0000000e+00 
9.6757805e-01 -5.4828901e-02 0.0000000e+00 
8.6768782e-01 -1.1494083e-01 0.0000000e+00 
9.2680544e-01 -1.0159997e-01 0.0000000e+00 
7.3522902e-01 -4.6560679e-02 0.0000000e+00 
7.9962808e-01 -8.1233606e-02 0.0000000e+00 
9.6236414e-01 -6.7514248e-02 0.0000000e+00 
8.5601598e-01 -1.1504193e-01 0.0000000e+00 
9.3495232e-01 -9.7906940e-02 0.0000000e+00 
9.7653425e-01 -2.1310534e-02 0.0000000e+00 
0.0000000e+00 0.0000000e+00 0.0000000e+00 
7.8883141e-01 -7.4153312e-02 0.0000000e+00 
9.7280729e-01 -4.5314956e-02 0.0000000e+00 
9.1296017e-01 -1.2474903e-02 0.0000000e+00 
8.1444818e-01 -9.8251767e-02 0.0000000e+00 
9.5650262e-01 -7.8519098e-02 0.0000000e+00 
8.4414268e-01 -1.1485351e-01 0.0000000e+00 
9.4265592e-01 -9.4256803e-02 0.0000000e+00 
9.7673458e-01 -3.0371673e-02 0.0000000e+00 
7.8895086e-01 -5.0206687e-02 0.0000000e+00 
7.5375026e-01 -4.5608606e-02 0.0000000e+00 
9.6793485e-01 -6.3553579e-02 0.0000000e+00 
9.7313154e-01 -5.1472008e-02 0.0000000e+00 
8.0177206e-01 -9.4126970e-02 0.0000000e+00 
9.4988942e-01 -9.0124078e-02 0.0000000e+00 
8.3083624e-01 -1.1351316e-01 0.0000000e+00 
9.7716063e-01 -3.6098629e-02 0.0000000e+00 
8.9650816e-01 -1.2028354e-01 0.0000000e+00 
9.0689021e-01 -1.1766625e-01 0.0000000e+00 
9.1657871e-01 -1.1428561e-01 0.0000000e+00 
8.8578057e-01 -1.2270508e-01 0.0000000e+00 
9.6274632e-01 -7.4613571e-02 0.0000000e+00 
8.7457800e-01 -1.2436185e-01 0.0000000e+00 
9.2561913e-01 -1.1089431e-01 0.0000000e+00 
7.7400970e-01 -6.9473408e-02 0.0000000e+00 
8.6253530e-01 -1.2519869e-01 0.0000000e+00 
8.1824172e-01 -1.1120754e-01 0.0000000e+00 
9.7760934e-01 -4.1951172e-02 0.0000000e+00 
9.3432719e-01 -1.0691418e-01 0.0000000e+00 
6.6303760e-01 -2.6532810e-03 0.0000000e+00 
7.5973117e-01 -4.0139619e-02 0.0000000e+00 
9.5680600e-01 -8.6217500e-02 0.0000000e+00 
9.7345144e-01 -5.7876866e-02 0.0000000e+00 
7.8863966e-01 -8.8868566e-02 0.0000000e+00 
8.4998125e-01 -1.2586010e-01 0.0000000e+00 