# vtk DataFile Version 4.0
vtk output
ASCII
DATASET UNSTRUCTURED_GRID
POINTS 5817 float
1.0000000e+01 0.0000000e+00 0.0000000e+00 
9.8999996e+00 0.0000000e+00 0.0000000e+00 
1.0000000e+01 1.0000000e-01 0.0000000e+00 
9.8583298e+00 8.8835500e-02 0.0000000e+00 
9.8000002e+00 0.0000000e+00 0.0000000e+00 
1.0000000e+01 2.0000000e-01 0.0000000e+00 
9.8999996e+00 1.7320500e-01 0.0000000e+00 
9.7500000e+00 8.6602502e-02 0.0000000e+00 
9.8000002e+00 1.7320500e-01 0.0000000e+00 
1.0000000e+01 3.0000001e-01 0.0000000e+00 
9.6999998e+00 0.0000000e+00 0.0000000e+00 
9.8583298e+00 2.6650599e-01 0.0000000e+00 
9.6999998e+00 1.7320500e-01 0.0000000e+00 
9.6499996e+00 8.6602502e-02 0.0000000e+00 
9.7500000e+00 2.5980800e-01 0.0000000e+00 
9.9033298e+00 3.4808499e-01 0.0000000e+00 
1.0000000e+01 4.0000001e-01 0.0000000e+00 
9.6000004e+00 0.0000000e+00 0.0000000e+00 
9.8000002e+00 3.4641001e-01 0.0000000e+00 
9.6000004e+00 1.7320500e-01 0.0000000e+00 
9.6499996e+00 2.5980800e-01 0.0000000e+00 
9.8583298e+00 4.2751101e-01 0.0000000e+00 
9.5500002e+00 8.6602502e-02 0.0000000e+00 
9.6999998e+00 3.4641001e-01 0.0000000e+00 
1.0000000e+01 5.0000000e-01 0.0000000e+00 
9.5000000e+00 0.0000000e+00 0.0000000e+00 
9.7500000e+00 4.3301299e-01 0.0000000e+00 
9.5500002e+00 2.5980800e-01 0.0000000e+00 
9.6000004e+00 3.4641001e-01 0.0000000e+00 
9.5000000e+00 1.7320500e-01 0.0000000e+00 
9.8999996e+00 5.1961499e-01 0.0000000e+00 
9.4499998e+00 8.6602502e-02 0.0000000e+00 
9.6499996e+00 4.3301299e-01 0.0000000e+00 
9.8000002e+00 5.1961499e-01 0.0000000e+00 
1.0000000e+01 6.0000002e-01 0.0000000e+00 
9.3999996e+00 0.0000000e+00 0.0000000e+00 
9.6999998e+00 5.1961499e-01 0.0000000e+00 
9.4499998e+00 2.5980800e-01 0.0000000e+00 
9.5000000e+00 3.4641001e-01 0.0000000e+00 
9.8893099e+00 6.1410201e-01 0.0000000e+00 
9.3999996e+00 1.7320500e-01 0.0000000e+00 
9.5500002e+00 4.3301299e-01 0.0000000e+00 
9.3500004e+00 8.6602502e-02 0.0000000e+00 
9.6000004e+00 5.1961499e-01 0.0000000e+00 
9.7873602e+00 6.3313198e-01 0.0000000e+00 
9.3999996e+00 3.4641001e-01 0.0000000e+00 
9.3000002e+00 0.0000000e+00 0.0000000e+00 
1.0000000e+01 6.9999999e-01 0.0000000e+00 
9.3500004e+00 2.5980800e-01 0.0000000e+00 
9.4499998e+00 4.3301299e-01 0.0000000e+00 
9.6772203e+00 6.2931901e-01 0.0000000e+00 
9.3000002e+00 1.7320500e-01 0.0000000e+00 
9.8485203e+00 7.1224803e-01 0.0000000e+00 
9.5041599e+00 5.3742099e-01 0.0000000e+00 
9.2500000e+00 8.6602502e-02 0.0000000e+00 
9.5762100e+00 6.3882500e-01 0.0000000e+00 
9.7494297e+00 7.2565800e-01 0.0000000e+00 
9.3000002e+00 3.4641001e-01 0.0000000e+00 
9.3420296e+00 4.3454701e-01 0.0000000e+00 
9.2500000e+00 2.5980800e-01 0.0000000e+00 
9.9096899e+00 7.9136300e-01 0.0000000e+00 
1.0000000e+01 8.0000001e-01 0.0000000e+00 
9.1999998e+00 0.0000000e+00 0.0000000e+00 
9.6503296e+00 7.3906797e-01 0.0000000e+00 
9.1999998e+00 1.7320500e-01 0.0000000e+00 
9.3813105e+00 5.4442602e-01 0.0000000e+00 
9.8105898e+00 8.0477297e-01 0.0000000e+00 
9.4674196e+00 6.5563202e-01 0.0000000e+00 
9.1499996e+00 8.6602502e-02 0.0000000e+00 
9.7114897e+00 8.1818300e-01 0.0000000e+00 
9.1999998e+00 3.4641001e-01 0.0000000e+00 
9.5512304e+00 7.5247800e-01 0.0000000e+00 
9.2865801e+00 5.0924700e-01 0.0000000e+00 
9.2342796e+00 4.2777699e-01 0.0000000e+00 
9.1499996e+00 2.5980800e-01 0.0000000e+00 
9.8717499e+00 8.8388801e-01 0.0000000e+00 
1.0000000e+01 8.9999998e-01 0.0000000e+00 
9.1000004e+00 0.0000000e+00 0.0000000e+00 
9.1000004e+00 1.7320500e-01 0.0000000e+00 
9.6124001e+00 8.3159399e-01 0.0000000e+00 
9.7726603e+00 8.9729899e-01 0.0000000e+00 
9.3619204e+00 6.7122602e-01 0.0000000e+00 
9.2737198e+00 5.9348202e-01 0.0000000e+00 
9.4521399e+00 7.6588798e-01 0.0000000e+00 
9.2042999e+00 5.2308202e-01 0.0000000e+00 
9.0500002e+00 8.6602502e-02 0.0000000e+00 
9.9329100e+00 9.6300399e-01 0.0000000e+00 
9.6735601e+00 9.1070902e-01 0.0000000e+00 
9.1368198e+00 4.4975999e-01 0.0000000e+00 
9.5132999e+00 8.4500402e-01 0.0000000e+00 
9.0923996e+00 3.6564499e-01 0.0000000e+00 
9.0500002e+00 2.5980800e-01 0.0000000e+00 
9.8338203e+00 9.7641402e-01 0.0000000e+00 
1.0000000e+01 1.0000000e+00 0.0000000e+00 
9.0000000e+00 0.0000000e+00 0.0000000e+00 
9.3530397e+00 7.7929902e-01 0.0000000e+00 
9.0000000e+00 1.7320500e-01 0.0000000e+00 
9.5744600e+00 9.2411900e-01 0.0000000e+00 
9.2438698e+00 6.8863100e-01 0.0000000e+00 
9.7347202e+00 9.8982400e-01 0.0000000e+00 
9.1771202e+00 6.1455202e-01 0.0000000e+00 
9.4141998e+00 8.5841399e-01 0.0000000e+00 
9.1068001e+00 5.4364800e-01 0.0000000e+00 
9.9044905e+00 1.0417700e+00 0.0000000e+00 
8.9499998e+00 8.6602502e-02 0.0000000e+00 
9.6356201e+00 1.0032300e+00 0.0000000e+00 
9.0417004e+00 4.7562101e-01 0.0000000e+00 
9.4753599e+00 9.3752903e-01 0.0000000e+00 
8.9499998e+00 2.5980800e-01 0.0000000e+00 
8.9784098e+00 3.7431899e-01 0.0000000e+00 
9.7958803e+00 1.0689400e+00 0.0000000e+00 
1.0000000e+01 1.1000000e+00 0.0000000e+00 
8.8999996e+00 0.0000000e+00 0.0000000e+00 
9.2132702e+00 7.8782201e-01 0.0000000e+00 
9.1461802e+00 7.1470100e-01 0.0000000e+00 
8.8999996e+00 1.7320500e-01 0.0000000e+00 
9.5365295e+00 1.0166399e+00 0.0000000e+00 
9.0804300e+00 6.3953602e-01 0.0000000e+00 
9.6967897e+00 1.0823500e+00 0.0000000e+00 
9.2791595e+00 8.6298501e-01 0.0000000e+00 
9.3762703e+00 9.5093900e-01 0.0000000e+00 
9.0110798e+00 5.7062602e-01 0.0000000e+00 
9.8643503e+00 1.1422800e+00 0.0000000e+00 
8.8500004e+00 8.6602502e-02 0.0000000e+00 
8.8924799e+00 3.3931199e-01 0.0000000e+00 
8.9442501e+00 4.9722099e-01 0.0000000e+00 
9.5976896e+00 1.0957600e+00 0.0000000e+00 
9.4374304e+00 1.0300500e+00 0.0000000e+00 
8.8500004e+00 2.5980800e-01 0.0000000e+00 
9.7579498e+00 1.1614600e+00 0.0000000e+00 
9.1158600e+00 8.0676198e-01 0.0000000e+00 
8.8780699e+00 4.2282000e-01 0.0000000e+00 
1.0000000e+01 1.2000000e+00 0.0000000e+00 
8.8000002e+00 0.0000000e+00 0.0000000e+00 
9.0481195e+00 7.3358703e-01 0.0000000e+00 
9.1810904e+00 8.8230300e-01 0.0000000e+00 
9.2557602e+00 9.4870597e-01 0.0000000e+00 
8.9842997e+00 6.5732199e-01 0.0000000e+00 
8.8000002e+00 1.7320500e-01 0.0000000e+00 
9.4985905e+00 1.1091700e+00 0.0000000e+00 
9.6588497e+00 1.1748700e+00 0.0000000e+00 
9.9182100e+00 1.2271700e+00 0.0000000e+00 
9.3251104e+00 1.0312500e+00 0.0000000e+00 
8.9135799e+00 5.8930397e-01 0.0000000e+00 
8.8084297e+00 3.5165700e-01 0.0000000e+00 
8.7500000e+00 8.6602502e-02 0.0000000e+00 
9.8191099e+00 1.2405800e+00 0.0000000e+00 
9.3931599e+00 1.1044700e+00 0.0000000e+00 
8.8464403e+00 5.1585698e-01 0.0000000e+00 
9.5597496e+00 1.1882800e+00 0.0000000e+00 
8.7500000e+00 2.5980800e-01 0.0000000e+00 
9.0928097e+00 9.0680802e-01 0.0000000e+00 
9.0184002e+00 8.2787198e-01 0.0000000e+00 
9.7200098e+00 1.2539901e+00 0.0000000e+00 
8.9546299e+00 7.5233299e-01 0.0000000e+00 
9.1608400e+00 9.7992098e-01 0.0000000e+00 
8.7830696e+00 4.4794399e-01 0.0000000e+00 
1.0000000e+01 1.3000000e+00 0.0000000e+00 
8.6999998e+00 0.0000000e+00 0.0000000e+00 
8.8883896e+00 6.7804497e-01 0.0000000e+00 
9.2278700e+00 1.0539600e+00 0.0000000e+00 
9.4606600e+00 1.2017000e+00 0.0000000e+00 
8.6918802e+00 1.9270100e-01 0.0000000e+00 
9.6209202e+00 1.2674000e+00 0.0000000e+00 
9.8934698e+00 1.3188500e+00 0.0000000e+00 
9.2957001e+00 1.1266800e+00 0.0000000e+00 
8.8160496e+00 6.0906202e-01 0.0000000e+00 
8.7121201e+00 3.7280300e-01 0.0000000e+00 
9.7811699e+00 1.3331100e+00 0.0000000e+00 
9.3628101e+00 1.2006400e+00 0.0000000e+00 
8.7522202e+00 5.4296398e-01 0.0000000e+00 
8.9969301e+00 9.2822403e-01 0.0000000e+00 
9.5218201e+00 1.2808100e+00 0.0000000e+00 
9.0639296e+00 1.0024101e+00 0.0000000e+00 
8.9203396e+00 8.4596699e-01 0.0000000e+00 
8.6267500e+00 1.0301200e-01 0.0000000e+00 
8.8568802e+00 7.7282602e-01 0.0000000e+00 
9.1301403e+00 1.0745500e+00 0.0000000e+00 
9.6820803e+00 1.3465199e+00 0.0000000e+00 
8.6461897e+00 3.0343899e-01 0.0000000e+00 
8.6854296e+00 4.6907300e-01 0.0000000e+00 
8.7924404e+00 7.0606899e-01 0.0000000e+00 
1.0000000e+01 1.4000000e+00 0.0000000e+00 
8.6000004e+00 0.0000000e+00 0.0000000e+00 
9.1987696e+00 1.1492000e+00 0.0000000e+00 
9.4227200e+00 1.2942200e+00 0.0000000e+00 
9.8423405e+00 1.4122200e+00 0.0000000e+00 
9.5829802e+00 1.3599300e+00 0.0000000e+00 
9.2651100e+00 1.2213700e+00 0.0000000e+00 
8.7203903e+00 6.3765901e-01 0.0000000e+00 
8.5783300e+00 2.3014100e-01 0.0000000e+00 
8.6154900e+00 3.9815599e-01 0.0000000e+00 
9.7432404e+00 1.4256300e+00 0.0000000e+00 
8.8996496e+00 9.4893199e-01 0.0000000e+00 
8.9663000e+00 1.0233800e+00 0.0000000e+00 
9.3332996e+00 1.2944700e+00 0.0000000e+00 
8.6545601e+00 5.6251901e-01 0.0000000e+00 
8.8232002e+00 8.6615598e-01 0.0000000e+00 
9.0328102e+00 1.0973001e+00 0.0000000e+00 
8.5388403e+00 7.1274497e-02 0.0000000e+00 
9.4838800e+00 1.3733400e+00 0.0000000e+00 
8.7642403e+00 8.0582702e-01 0.0000000e+00 
9.1010399e+00 1.1701699e+00 0.0000000e+00 
9.6441402e+00 1.4390399e+00 0.0000000e+00 
8.5491400e+00 3.2567400e-01 0.0000000e+00 
8.5171900e+00 1.6373500e-01 0.0000000e+00 
8.5903702e+00 4.9454200e-01 0.0000000e+00 
8.6965504e+00 7.3207003e-01 0.0000000e+00 
9.1679201e+00 1.2442800e+00 0.0000000e+00 
1.0000000e+01 1.5000000e+00 0.0000000e+00 
8.5000000e+00 0.0000000e+00 0.0000000e+00 
9.9187202e+00 1.5001400e+00 0.0000000e+00 
9.3847904e+00 1.3867500e+00 0.0000000e+00 
9.8044004e+00 1.5047500e+00 0.0000000e+00 
8.6287603e+00 6.5904301e-01 0.0000000e+00 
9.5450497e+00 1.4524500e+00 0.0000000e+00 
9.2358704e+00 1.3168499e+00 0.0000000e+00 
8.5254898e+00 4.2105001e-01 0.0000000e+00 
8.4849596e+00 2.5780100e-01 0.0000000e+00 
8.8687496e+00 1.0439600e+00 0.0000000e+00 
8.9374199e+00 1.1185300e+00 0.0000000e+00 
9.7053099e+00 1.5181600e+00 0.0000000e+00 
8.7996702e+00 9.7555703e-01 0.0000000e+00 
8.4502602e+00 8.9625701e-02 0.0000000e+00 
9.0043802e+00 1.1929899e+00 0.0000000e+00 
[...]
POINT_DATA 5817
FIELD FieldData 2
VELOCITY 3 5817  float
0.0000000e+00 0.0000000e+00 0.0000000e+00 
0.0000000e+00 0.0000000e+00 0.0000000e+00 
1.0892676e+00 3.4956884e-02 0.0000000e+00 
1.0607170e+00 1.6544284e-02 0.0000000e+00 
0.0000000e+00 0.0000000e+00 0.0000000e+00 
7.9772604e-01 -8.1416629e-03 0.0000000e+00 
8.0996943e-01 1.5878397e-03 0.0000000e+00 
1.0510278e+00 -6.8522681e-04 0.0000000e+00 
8.0414295e-01 -8.2092773e-04 0.0000000e+00 
8.9642948e-01 5.7707685e-03 0.0000000e+00 
0.0000000e+00 0.0000000e+00 0.0000000e+00 
8.7070495e-01 -2.3572743e-03 0.0000000e+00 
8.0466610e-01 -5.4079080e-03 0.0000000e+00 
1.0436360e+00 -4.2866846e-03 0.0000000e+00 
8.6064428e-01 -5.8785640e-03 0.0000000e+00 
8.6404818e-01 -1.1093265e-02 0.0000000e+00 
8.6778110e-01 -1.1900827e-02 0.0000000e+00 
0.0000000e+00 0.0000000e+00 0.0000000e+00 
8.5889655e-01 -1.1161629e-02 0.0000000e+00 
8.0576134e-01 -9.9680331e-03 0.0000000e+00 
8.5245776e-01 -9.8714978e-03 0.0000000e+00 
8.6709696e-01 -1.3555737e-02 0.0000000e+00 
1.0312909e+00 -6.7242873e-03 0.0000000e+00 
8.5247576e-01 -1.5265531e-02 0.0000000e+00 
8.7853599e-01 -1.4628575e-02 0.0000000e+00 
0.0000000e+00 0.0000000e+00 0.0000000e+00 
8.6012852e-01 -1.8604467e-02 0.0000000e+00 
8.4448588e-01 -1.2806241e-02 0.0000000e+00 
8.4582675e-01 -1.8892299e-02 0.0000000e+00 
8.0828249e-01 -1.3657154e-02 0.0000000e+00 
8.7458980e-01 -1.7540047e-02 0.0000000e+00 
1.0144663e+00 -8.8749304e-03 0.0000000e+00 
8.5380161e-01 -2.2402206e-02 0.0000000e+00 
8.6677957e-01 -2.2502577e-02 0.0000000e+00 
8.8020992e-01 -1.9265983e-02 0.0000000e+00 
0.0000000e+00 0.0000000e+00 0.0000000e+00 
8.6056685e-01 -2.6026569e-02 0.0000000e+00 
8.3608699e-01 -1.5747838e-02 0.0000000e+00 
8.3846182e-01 -2.2524813e-02 0.0000000e+00 
8.7414664e-01 -2.4451708e-02 0.0000000e+00 
8.1192565e-01 -1.7052250e-02 0.0000000e+00 
8.4724158e-01 -2.6450232e-02 0.0000000e+00 
9.9369961e-01 -1.0600240e-02 0.0000000e+00 
8.5411137e-01 -3.0193465e-02 0.0000000e+00 
8.7002587e-01 -2.9104149e-02 0.0000000e+00 
8.3043045e-01 -2.6185822e-02 0.0000000e+00 
0.0000000e+00 0.0000000e+00 0.0000000e+00 
8.8320553e-01 -2.4425106e-02 0.0000000e+00 
8.2711220e-01 -1.8899741e-02 0.0000000e+00 
8.4028822e-01 -3.0557025e-02 0.0000000e+00 
8.6360067e-01 -3.3668328e-02 0.0000000e+00 
8.1591326e-01 -2.0216884e-02 0.0000000e+00 
8.7686908e-01 -3.0587913e-02 0.0000000e+00 
8.4846365e-01 -3.5563499e-02 0.0000000e+00 
9.6951360e-01 -1.1883176e-02 0.0000000e+00 
8.5786545e-01 -3.8885109e-02 0.0000000e+00 
8.7214839e-01 -3.5891701e-02 0.0000000e+00 
8.2176548e-01 -3.0011462e-02 0.0000000e+00 
8.3231139e-01 -3.5211779e-02 0.0000000e+00 
8.1759936e-01 -2.2407196e-02 0.0000000e+00 
8.8319057e-01 -3.1878877e-02 0.0000000e+00 
8.8732088e-01 -2.8452206e-02 0.0000000e+00 
0.0000000e+00 0.0000000e+00 0.0000000e+00 
8.6719662e-01 -4.1355465e-02 0.0000000e+00 
8.1931585e-01 -2.3703279e-02 0.0000000e+00 
8.4012067e-01 -4.1766033e-02 0.0000000e+00 
8.7890446e-01 -3.7118509e-02 0.0000000e+00 
8.5160053e-01 -4.5339201e-02 0.0000000e+00 
9.4196337e-01 -1.3267806e-02 0.0000000e+00 
8.7453878e-01 -4.2642474e-02 0.0000000e+00 
8.1255209e-01 -3.3741698e-02 0.0000000e+00 
8.6193395e-01 -4.7247373e-02 0.0000000e+00 
8.3130842e-01 -4.3592863e-02 0.0000000e+00 
8.2327503e-01 -3.9382745e-02 0.0000000e+00 
8.0797940e-01 -2.6512904e-02 0.0000000e+00 
8.8549978e-01 -3.7815090e-02 0.0000000e+00 
8.9150983e-01 -3.2440815e-02 0.0000000e+00 
0.0000000e+00 0.0000000e+00 0.0000000e+00 
8.2135403e-01 -2.8326197e-02 0.0000000e+00 
8.6985457e-01 -4.8608318e-02 0.0000000e+00 
8.8172352e-01 -4.3441631e-02 0.0000000e+00 
8.4501660e-01 -5.1937521e-02 0.0000000e+00 
8.3446956e-01 -5.0722767e-02 0.0000000e+00 
8.5638028e-01 -5.3507622e-02 0.0000000e+00 
8.2545626e-01 -4.8530474e-02 0.0000000e+00 
9.0969759e-01 -1.5557793e-02 0.0000000e+00 
8.9209402e-01 -3.8053714e-02 0.0000000e+00 
8.7754983e-01 -4.9492862e-02 0.0000000e+00 
8.1652236e-01 -4.5568027e-02 0.0000000e+00 
8.6485022e-01 -5.4965433e-02 0.0000000e+00 
8.0361724e-01 -3.9687119e-02 0.0000000e+00 
7.9918987e-01 -3.1026047e-02 0.0000000e+00 
8.8870782e-01 -4.3755352e-02 0.0000000e+00 
8.9641553e-01 -3.6076527e-02 0.0000000e+00 
0.0000000e+00 0.0000000e+00 0.0000000e+00 
8.5042661e-01 -6.0137622e-02 0.0000000e+00 
8.2277399e-01 -3.4056064e-02 0.0000000e+00 
8.7303644e-01 -5.5943944e-02 0.0000000e+00 
8.3719432e-01 -5.9821911e-02 0.0000000e+00 
8.8503039e-01 -4.9889021e-02 0.0000000e+00 
8.2762134e-01 -5.7483364e-02 0.0000000e+00 
8.5946560e-01 -6.1715867e-02 0.0000000e+00 
8.1815135e-01 -5.5026673e-02 0.0000000e+00 
8.9515114e-01 -4.2592399e-02 0.0000000e+00 
8.7277782e-01 -1.8844508e-02 0.0000000e+00 
8.8103694e-01 -5.6418583e-02 0.0000000e+00 
8.1009132e-01 -5.2045248e-02 0.0000000e+00 
8.6817998e-01 -6.2814102e-02 0.0000000e+00 
7.9210258e-01 -3.4950588e-02 0.0000000e+00 
7.9343677e-01 -4.5081824e-02 0.0000000e+00 
8.9235145e-01 -4.9808417e-02 0.0000000e+00 
9.0160131e-01 -3.9458733e-02 0.0000000e+00 
0.0000000e+00 0.0000000e+00 0.0000000e+00 
8.4065855e-01 -6.9313325e-02 0.0000000e+00 
8.3076096e-01 -6.7715228e-02 0.0000000e+00 
8.2321882e-01 -3.8422186e-02 0.0000000e+00 
8.7672466e-01 -6.3365951e-02 0.0000000e+00 
8.2047772e-01 -6.5115362e-02 0.0000000e+00 
8.8884324e-01 -5.6408409e-02 0.0000000e+00 
8.5072714e-01 -7.0671260e-02 0.0000000e+00 
8.6293483e-01 -7.0134208e-02 0.0000000e+00 
8.1017470e-01 -6.2528729e-02 0.0000000e+00 
8.9936405e-01 -4.8574466e-02 0.0000000e+00 
8.2730806e-01 -2.2608358e-02 0.0000000e+00 
7.8268045e-01 -4.4636205e-02 0.0000000e+00 
8.0169404e-01 -5.8694798e-02 0.0000000e+00 
8.8505721e-01 -6.3409485e-02 0.0000000e+00 
8.7207770e-01 -7.0755444e-02 0.0000000e+00 
7.8915256e-01 -3.9307334e-02 0.0000000e+00 
8.9643556e-01 -5.5928323e-02 0.0000000e+00 
8.3419549e-01 -7.7308469e-02 0.0000000e+00 
7.8923625e-01 -5.4068170e-02 0.0000000e+00 
9.0725595e-01 -4.2589724e-02 0.0000000e+00 
0.0000000e+00 0.0000000e+00 0.0000000e+00 
8.2351667e-01 -7.5548664e-02 0.0000000e+00 
8.4469163e-01 -7.8807816e-02 0.0000000e+00 
8.5476243e-01 -7.8336217e-02 0.0000000e+00 
8.1272137e-01 -7.2617948e-02 0.0000000e+00 
8.2660949e-01 -4.1948535e-02 0.0000000e+00 
8.8097215e-01 -7.0851289e-02 0.0000000e+00 
8.9316159e-01 -6.2971532e-02 0.0000000e+00 
9.0632576e-01 -4.8300419e-02 0.0000000e+00 
8.6536539e-01 -7.8797415e-02 0.0000000e+00 
8.0109769e-01 -7.0180871e-02 0.0000000e+00 
7.7188551e-01 -4.8233382e-02 0.0000000e+00 
7.9502052e-01 -2.9541628e-02 0.0000000e+00 
9.0379751e-01 -5.4999039e-02 0.0000000e+00 
8.7493062e-01 -7.8221932e-02 0.0000000e+00 
7.9139495e-01 -6.6390976e-02 0.0000000e+00 
8.8961017e-01 -7.0444703e-02 0.0000000e+00 
7.8218228e-01 -3.8402766e-02 0.0000000e+00 
8.3952159e-01 -8.7131321e-02 0.0000000e+00 
8.2740837e-01 -8.5926048e-02 0.0000000e+00 
9.0103740e-01 -6.2072765e-02 0.0000000e+00 
8.1617981e-01 -8.3462328e-02 0.0000000e+00 
8.5025859e-01 -8.7600239e-02 0.0000000e+00 
7.8086644e-01 -6.2399842e-02 0.0000000e+00 
9.1321987e-01 -4.5447968e-02 0.0000000e+00 
0.0000000e+00 0.0000000e+00 0.0000000e+00 
8.0484509e-01 -8.0574028e-02 0.0000000e+00 
8.6069894e-01 -8.7639168e-02 0.0000000e+00 
8.8576102e-01 -7.8379437e-02 0.0000000e+00 
8.2282466e-01 -3.6182456e-02 0.0000000e+00 
8.9799774e-01 -6.9565549e-02 0.0000000e+00 
9.1138983e-01 -5.2759778e-02 0.0000000e+00 
8.7082666e-01 -8.6982332e-02 0.0000000e+00 
7.9234010e-01 -7.7704400e-02 0.0000000e+00 
7.5920683e-01 -5.7107329e-02 0.0000000e+00 
9.0870267e-01 -6.0730450e-02 0.0000000e+00 
8.8053668e-01 -8.5929610e-02 0.0000000e+00 
7.8209913e-01 -7.3918931e-02 0.0000000e+00 
8.3315575e-01 -9.6338674e-02 0.0000000e+00 
8.9470190e-01 -7.7498779e-02 0.0000000e+00 
8.4461588e-01 -9.7006105e-02 0.0000000e+00 
8.1979555e-01 -9.4939649e-02 0.0000000e+00 
8.0869108e-01 -1.8263405e-02 0.0000000e+00 
8.0787754e-01 -9.2436627e-02 0.0000000e+00 
8.5558230e-01 -9.6972540e-02 0.0000000e+00 
9.0613866e-01 -6.8239130e-02 0.0000000e+00 
7.5020450e-01 -4.9964406e-02 0.0000000e+00 
7.7267915e-01 -6.8472125e-02 0.0000000e+00 
7.9655308e-01 -9.0002201e-02 0.0000000e+00 
9.1959208e-01 -4.8112106e-02 0.0000000e+00 
0.0000000e+00 0.0000000e+00 0.0000000e+00 
8.6658746e-01 -9.6306421e-02 0.0000000e+00 
8.9113325e-01 -8.5924260e-02 0.0000000e+00 
9.1614670e-01 -5.8947239e-02 0.0000000e+00 
9.0335816e-01 -7.6157629e-02 0.0000000e+00 
8.7674642e-01 -9.5111556e-02 0.0000000e+00 
7.8332174e-01 -8.7022647e-02 0.0000000e+00 
7.9008669e-01 -4.6578631e-02 0.0000000e+00 
7.5490689e-01 -6.2643737e-02 0.0000000e+00 
9.1402853e-01 -6.6508628e-02 0.0000000e+00 
8.2617247e-01 -1.0622781e-01 0.0000000e+00 
8.3842659e-01 -1.0699859e-01 0.0000000e+00 
8.8668108e-01 -9.3351007e-02 0.0000000e+00 
7.7069956e-01 -8.1891552e-02 0.0000000e+00 
8.1190646e-01 -1.0467900e-01 0.0000000e+00 
8.5034066e-01 -1.0706070e-01 0.0000000e+00 
6.0303164e-01 -3.1595759e-03 0.0000000e+00 
9.0035433e-01 -8.4541209e-02 0.0000000e+00 
8.0047065e-01 -1.0293343e-01 0.0000000e+00 
8.6190182e-01 -1.0623366e-01 0.0000000e+00 
9.1173035e-01 -7.4385762e-02 0.0000000e+00 
7.3300201e-01 -5.4919310e-02 0.0000000e+00 
8.1655854e-01 -4.5160066e-02 0.0000000e+00 
7.6096356e-01 -7.6504968e-02 0.0000000e+00 
7.8753477e-01 -9.9826515e-02 0.0000000e+00 
8.7293041e-01 -1.0500783e-01 0.0000000e+00 
9.2619365e-01 -5.0478145e-02 0.0000000e+00 
0.0000000e+00 0.0000000e+00 0.0000000e+00 
9.2433167e-01 -5.6084856e-02 0.0000000e+00 
8.9710861e-01 -9.3431644e-02 0.0000000e+00 
9.2160553e-01 -6.4362176e-02 0.0000000e+00 
7.7368540e-01 -9.5649585e-02 0.0000000e+00 
9.0922177e-01 -8.2719803e-02 0.0000000e+00 
8.8345343e-01 -1.0308111e-01 0.0000000e+00 
7.4816948e-01 -6.9422610e-02 0.0000000e+00 
7.5082737e-01 -4.3541458e-02 0.0000000e+00 
8.3178973e-01 -1.1766859e-01 0.0000000e+00 
8.4477150e-01 -1.1755601e-01 0.0000000e+00 
9.1976434e-01 -7.2219662e-02 0.0000000e+00 
8.1894225e-01 -1.1764254e-01 0.0000000e+00 
6.8029755e-01 -2.9472632e-02 0.0000000e+00 
8.5718095e-01 -1.1687088e-01 0.0000000e+00 
8.0548942e-01 -1.1603516e-01 0.0000000e+00 
8.9362752e-01 -1.0084649e-01 0.0000000e+00 
7.5938296e-01 -9.0882674e-02 0.0000000e+00 
9.0652966e-01 -9.1536328e-02 0.0000000e+00 
7.9106688e-01 -1.1338963e-01 0.0000000e+00 
8.6861229e-01 -1.1544739e-01 0.0000000e+00 
9.1773963e-01 -8.0486596e-02 0.0000000e+00 
7.2202790e-01 -6.2751062e-02 0.0000000e+00 
9.2902184e-01 -6.1889552e-02 0.0000000e+00 
7.7710712e-01 -1.0995989e-01 0.0000000e+00 
8.1552601e-01 -3.4789622e-02 0.0000000e+00 
8.7988544e-01 -1.1334175e-01 0.0000000e+00 
7.4716431e-01 -8.3928250e-02 0.0000000e+00 
9.3310362e-01 -5.2653391e-02 0.0000000e+00 
0.0000000e+00 0.0000000e+00 0.0000000e+00 
9.2758751e-01 -6.9705479e-02 0.0000000e+00 
9.0361184e-01 -1.0088540e-01 0.0000000e+00 
7.6302493e-01 -1.0598523e-01 0.0000000e+00 
8.9071667e-01 -1.1098419e-01 0.0000000e+00 
9.1555130e-01 -8.9207500e-02 0.0000000e+00 
8.3864611e-01 -1.2898818e-01 0.0000000e+00 
8.2498121e-01 -1.2929553e-01 0.0000000e+00 
7.3668218e-01 -7.5392753e-02 0.0000000e+00 
8.5188609e-01 -1.2820140e-01 0.0000000e+00 
8.1084269e-01 -1.2909064e-01 0.0000000e+00 
7.1523941e-01 -5.0810382e-02 0.0000000e+00 
8.9938241e-01 -1.0786478e-01 0.0000000e+00 
9.2600173e-01 -7.7894188e-02 0.0000000e+00 
7.9647893e-01 -1.2738712e-01 0.0000000e+00 
8.6441195e-01 -1.2674481e-01 0.0000000e+00 
7.4783546e-01 -9.9948414e-02 0.0000000e+00 
7.4753481e-01 -1.7756447e-02 0.0000000e+00 
7.8101557e-01 -1.2459201e-01 0.0000000e+00 
8.7632662e-01 -1.2440866e-01 0.0000000e+00 
9.3620783e-01 -5.9149865e-02 0.0000000e+00 
9.1322052e-01 -9.8411202e-02 0.0000000e+00 
9.2428660e-01 -8.6506560e-02 0.0000000e+00 
7.1360505e-01 -6.6583522e-02 0.0000000e+00 
9.3511081e-01 -6.6867001e-02 0.0000000e+00 
7.3287690e-01 -9.2630766e-02 0.0000000e+00 
8.8765186e-01 -1.2177783e-01 0.0000000e+00 
7.6587242e-01 -1.2116568e-01 0.0000000e+00 
7.7955878e-01 -4.4916231e-02 0.0000000e+00 
0.0000000e+00 0.0000000e+00 0.0000000e+00 
9.4025671e-01 -5.4525726e-02 0.0000000e+00 
9.3395001e-01 -7.4964345e-02 0.0000000e+00 
8.3228403e-01 -1.4134151e-01 0.0000000e+00 
7.5049448e-01 -1.1613061e-01 0.0000000e+00 
8.4651023e-01 -1.4037184e-01 0.0000000e+00 
8.9839828e-01 -1.1850659e-01 0.0000000e+00 
8.1800002e-01 -1.4186680e-01 0.0000000e+00 
9.0880322e-01 -1.1069711e-01 0.0000000e+00 
9.2245674e-01 -9.5582820e-02 0.0000000e+00 
8.0292267e-01 -1.4099754e-01 0.0000000e+00 
8.5955328e-01 -1.3867418e-01 0.0000000e+00 
7.2092396e-01 -8.4716618e-02 0.0000000e+00 
6.8760842e-01 -5.1488131e-02 0.0000000e+00 
7.8727889e-01 -1.3946335e-01 0.0000000e+00 
8.7238765e-01 -1.3617073e-01 0.0000000e+00 
7.5348359e-01 -1.8189503e-02 0.0000000e+00 
9.3267643e-01 -8.3462588e-02 0.0000000e+00 
9.4157714e-01 -6.2613219e-02 0.0000000e+00 
7.3457885e-01 -1.0963836e-01 0.0000000e+00 
7.7036858e-01 -1.3697547e-01 0.0000000e+00 
8.8470817e-01 -1.3333960e-01 0.0000000e+00 
9.2050630e-01 -1.0517474e-01 0.0000000e+00 
9.3131357e-01 -9.2384964e-02 0.0000000e+00 
9.4161373e-01 -7.1732298e-02 0.0000000e+00 
7.0257521e-01 -7.6167367e-02 0.0000000e+00 
8.9602900e-01 -1.2976198e-01 0.0000000e+00 
7.5397652e-01 -1.3321751e-01 0.0000000e+00 
7.1745932e-01 -1.0151823e-01 0.0000000e+00 
7.4767315e-01 -3.7241444e-02 0.0000000e+00 
8.2559890e-01 -1.5460359e-01 0.0000000e+00 
8.4063607e-01 -1.5341814e-01 0.0000000e+00 
9.4758928e-01 -5.6192201e-02 0.0000000e+00 
0.0000000e+00 0.0000000e+00 0.0000000e+00 
8.0977798e-01 -1.5502414e-01 0.0000000e+00 
8.5486394e-01 -1.5155812e-01 0.0000000e+00 
9.4072026e-01 -8.0110103e-02 0.0000000e+00 
7.3687643e-01 -1.2761749e-01 0.0000000e+00 
7.9405290e-01 -1.5431248e-01 0.0000000e+00 
9.0731609e-01 -1.2598057e-01 0.0000000e+00 
8.6855662e-01 -1.4875752e-01 0.0000000e+00 
9.2985892e-01 -1.0178980e-01 0.0000000e+00 
6.6244370e-01 -6.4972110e-02 0.0000000e+00 
7.7721405e-01 -1.5286891e-01 0.0000000e+00 
7.0391327e-01 -9.2978902e-02 0.0000000e+00 
8.8128424e-01 -1.4560606e-01 0.0000000e+00 
9.1821927e-01 -1.1855408e-01 0.0000000e+00 
9.3977904e-01 -8.8877425e-02 0.0000000e+00 
8.0038685e-01 -1.8901698e-02 0.0000000e+00 
7.1992546e-01 -1.2095775e-01 0.0000000e+00 
9.4867712e-01 -6.7482747e-02 0.0000000e+00 
8.9337486e-01 -1.4166206e-01 0.0000000e+00 
7.5891435e-01 -1.5022902e-01 0.0000000e+00 
6.9269300e-01 -8.0045424e-02 0.0000000e+00 
9.4845140e-01 -7.6499060e-02 0.0000000e+00 
7.4132305e-01 -1.4569020e-01 0.0000000e+00 
9.3879992e-01 -9.8102175e-02 0.0000000e+00 
9.2822409e-01 -1.1397125e-01 0.0000000e+00 
9.0532553e-01 -1.3768995e-01 0.0000000e+00 
8.3469832e-01 -1.6749428e-01 0.0000000e+00 
7.0066231e-01 -1.1297105e-01 0.0000000e+00 
6.7440623e-01 -5.5596638e-02 0.0000000e+00 
8.1844205e-01 -1.6892663e-01 0.0000000e+00 
8.4945673e-01 -1.6529508e-01 0.0000000e+00 
8.6420435e-01 -1.6224329e-01 0.0000000e+00 
8.0154657e-01 -1.6954878e-01 0.0000000e+00 
9.5501643e-01 -5.7496767e-02 0.0000000e+00 
0.0000000e+00 0.0000000e+00 0.0000000e+00 
7.8403342e-01 -1.6854419e-01 0.0000000e+00 
9.4787955e-01 -8.5099161e-02 0.0000000e+00 
8.7820196e-01 -1.5884064e-01 0.0000000e+00 
7.2257268e-01 -1.4024892e-01 0.0000000e+00 
5.4616463e-01 1.6629015e-03 0.0000000e+00 
9.1638386e-01 -1.3245422e-01 0.0000000e+00 
9.3774444e-01 -1.0782597e-01 0.0000000e+00 
6.5844226e-01 -6.5814458e-02 0.0000000e+00 
7.6596314e-01 -1.6684459e-01 0.0000000e+00 
8.9092726e-01 -1.5449210e-01 0.0000000e+00 
9.5596313e-01 -6.4583659e-02 0.0000000e+00 
6.8207502e-01 -1.0384554e-01 0.0000000e+00 
7.5025922e-01 -4.3823913e-02 0.0000000e+00 
9.4729191e-01 -9.4113730e-02 0.0000000e+00 
7.0394993e-01 -1.3238908e-01 0.0000000e+00 
7.4630332e-01 -1.6421631e-01 0.0000000e+00 
9.5574516e-01 -7.2660513e-02 0.0000000e+00 
9.2667323e-01 -1.2817709e-01 0.0000000e+00 
9.0361881e-01 -1.5009637e-01 0.0000000e+00 
8.2799095e-01 -1.8247579e-01 0.0000000e+00 
8.4424394e-01 -1.8025118e-01 0.0000000e+00 
6.6950214e-01 -9.1474101e-02 0.0000000e+00 
9.5554048e-01 -8.1078380e-02 0.0000000e+00 
8.1046385e-01 -1.8402870e-01 0.0000000e+00 
7.2707641e-01 -1.5974948e-01 0.0000000e+00 
8.5993296e-01 -1.7681789e-01 0.0000000e+00 
9.4667071e-01 -1.0357468e-01 0.0000000e+00 
9.1505927e-01 -1.4493603e-01 0.0000000e+00 
6.4225900e-01 -5.3298712e-02 0.0000000e+00 
6.8403846e-01 -1.2321886e-01 0.0000000e+00 
7.9204905e-01 -1.8486330e-01 0.0000000e+00 
8.7444580e-01 -1.7287594e-01 0.0000000e+00 
9.3645644e-01 -1.2293720e-01 0.0000000e+00 
7.7371264e-01 -1.8412064e-01 0.0000000e+00 
9.6271390e-01 -5.8664743e-02 0.0000000e+00 
0.0000000e+00 0.0000000e+00 0.0000000e+00 
8.8810188e-01 -1.6800852e-01 0.0000000e+00 
9.5532578e-01 -8.9893669e-02 0.0000000e+00 
7.0686996e-01 -1.5343946e-01 0.0000000e+00 
5.9912598e-01 -1.8466217e-02 0.0000000e+00 
9.2614561e-01 -1.3981564e-01 0.0000000e+00 
7.5429279e-01 -1.8263987e-01 0.0000000e+00 
9.6314758e-01 -6.7425698e-02 0.0000000e+00 
6.4085454e-01 -7.6882452e-02 0.0000000e+00 
9.0161729e-01 -1.6331139e-01 0.0000000e+00 
6.6324520e-01 -1.1362640e-01 0.0000000e+00 
7.2041100e-01 -4.0097613e-02 0.0000000e+00 
9.4572192e-01 -1.1770925e-01 0.0000000e+00 
9.5512825e-01 -9.9123083e-02 0.0000000e+00 
6.8632865e-01 -1.4556615e-01 0.0000000e+00 
7.3291552e-01 -1.7972293e-01 0.0000000e+00 
9.1364986e-01 -1.5757674e-01 0.0000000e+00 
9.6311992e-01 -7.6892965e-02 0.0000000e+00 
9.3637729e-01 -1.3418792e-01 0.0000000e+00 
8.3862048e-01 -1.9582890e-01 0.0000000e+00 
8.2095653e-01 -1.9877563e-01 0.0000000e+00 
8.5521239e-01 -1.9225515e-01 0.0000000e+00 
6.4920455e-01 -1.0127925e-01 0.0000000e+00 
8.0266094e-01 -2.0072706e-01 0.0000000e+00 
8.7123853e-01 -1.8812726e-01 0.0000000e+00 
9.6320271e-01 -8.5497461e-02 0.0000000e+00 
7.1210599e-01 -1.7475234e-01 0.0000000e+00 
9.2540145e-01 -1.5210015e-01 0.0000000e+00 
9.5496088e-01 -1.0884308e-01 0.0000000e+00 
7.8281242e-01 -2.0175685e-01 0.0000000e+00 
8.8578546e-01 -1.8270390e-01 0.0000000e+00 
6.1228591e-01 -6.6210479e-02 0.0000000e+00 
6.6601038e-01 -1.3668421e-01 0.0000000e+00 
9.4609648e-01 -1.2850338e-01 0.0000000e+00 
7.6233906e-01 -2.0096982e-01 0.0000000e+00 
8.9989877e-01 -1.7694172e-01 0.0000000e+00 
9.7026163e-01 -5.9500199e-02 0.0000000e+00 
0.0000000e+00 0.0000000e+00 0.0000000e+00 
6.4906323e-01 -1.2374961e-01 0.0000000e+00 
9.6334767e-01 -9.4476752e-02 0.0000000e+00 
6.8554211e-01 -2.2022761e-02 0.0000000e+00 
6.9008225e-01 -1.6833791e-01 0.0000000e+00 
9.3621659e-01 -1.4592496e-01 0.0000000e+00 
7.4139571e-01 -1.9955513e-01 0.0000000e+00 
9.1273946e-01 -1.7117296e-01 0.0000000e+00 
9.7002834e-01 -7.2483309e-02 0.0000000e+00 
6.2455386e-01 -8.8361286e-02 0.0000000e+00 
6.4871806e-01 -6.0174495e-02 0.0000000e+00 
9.5513093e-01 -1.2247623e-01 0.0000000e+00 
9.6356660e-01 -1.0388980e-01 0.0000000e+00 
6.6824150e-01 -1.6031659e-01 0.0000000e+00 
9.2489195e-01 -1.6461138e-01 0.0000000e+00 
7.1834350e-01 -1.9638415e-01 0.0000000e+00 
9.7037917e-01 -8.0927342e-02 0.0000000e+00 
8.3244586e-01 -2.1300741e-01 0.0000000e+00 
8.5089570e-01 -2.0916827e-01 0.0000000e+00 
8.6780512e-01 -2.0387593e-01 0.0000000e+00 
8.1393188e-01 -2.1655747e-01 0.0000000e+00 
9.4643641e-01 -1.3986172e-01 0.0000000e+00 
7.9441172e-01 -2.1876521e-01 0.0000000e+00 
8.8339752e-01 -1.9843003e-01 0.0000000e+00 
6.2834877e-01 -1.1423878e-01 0.0000000e+00 
7.7298921e-01 -2.1945357e-01 0.0000000e+00 
6.9602984e-01 -1.9134985e-01 0.0000000e+00 
9.7081542e-01 -8.9638844e-02 0.0000000e+00 
8.9841914e-01 -1.9204994e-01 0.0000000e+00 
4.4993976e-01 1.2122965e-03 0.0000000e+00 
5.9429073e-01 -7.5147972e-02 0.0000000e+00 
9.3644267e-01 -1.5844505e-01 0.0000000e+00 
9.6387285e-01 -1.1376911e-01 0.0000000e+00 
6.4575297e-01 -1.5031379e-01 0.0000000e+00 
7.5065601e-01 -2.1958697e-01 0.0000000e+00 