# vtk DataFile Version 4.0
vtk output
ASCII
DATASET UNSTRUCTURED_GRID
POINTS 5817 float
1.0000000e+01 0.0000000e+00 0.0000000e+00 
9.8999996e+00 0.0000000e+00 0.0000000e+00 
1.0000000e+01 1.0000000e-01 0.0000000e+00 
9.8583298e+00 8.8835500e-02 0.0000000e+00 
9.8000002e+00 0.0000000e+00 0.0000000e+00 
1.0000000e+01 2.0000000e-01 0.0000000e+00 
9.8999996e+00 1.7320500e-01 0.0000000e+00 
9.7500000e+00 8.6602502e-02 0.0000000e+00 
9.8000002e+00 1.7320500e-01 0.0000000e+00 
1.0000000e+01 3.0000001e-01 0.0000000e+00 
9.6999998e+00 0.0000000e+00 0.0000000e+00 
9.8583298e+00 2.6650599e-01 0.0000000e+00 
9.6999998e+00 1.7320500e-01 0.0000000e+00 
9.6499996e+00 8.6602502e-02 0.0000000e+00 
9.7500000e+00 2.5980800e-01 0.0000000e+00 
9.9033298e+00 3.4808499e-01 0.0000000e+00 
1.0000000e+01 4.0000001e-01 0.0000000e+00 
9.6000004e+00 0.0000000e+00 0.0000000e+00 
9.8000002e+00 3.4641001e-01 0.0000000e+00 
9.6000004e+00 1.7320500e-01 0.0000000e+00 
9.6499996e+00 2.5980800e-01 0.0000000e+00 
9.8583298e+00 4.2751101e-01 0.0000000e+00 
9.5500002e+00 8.6602502e-02 0.0000000e+00 
9.6999998e+00 3.4641001e-01 0.0000000e+00 
1.0000000e+01 5.0000000e-01 0.0000000e+00 
9.5000000e+00 0.0000000e+00 0.0000000e+00 
9.7500000e+00 4.3301299e-01 0.0000000e+00 
9.5500002e+00 2.5980800e-01 0.0000000e+00 
9.6000004e+00 3.4641001e-01 0.0000000e+00 
9.5000000e+00 1.7320500e-01 0.0000000e+00 
9.8999996e+00 5.1961499e-01 0.0000000e+00 
9.4499998e+00 8.6602502e-02 0.0000000e+00 
9.6499996e+00 4.3301299e-01 0.0000000e+00 
9.8000002e+00 5.1961499e-01 0.0000000e+00 
1.0000000e+01 6.0000002e-01 0.0000000e+00 
9.3999996e+00 0.0000000e+00 0.0000000e+00 
9.6999998e+00 5.1961499e-01 0.0000000e+00 
9.4499998e+00 2.5980800e-01 0.0000000e+00 
9.5000000e+00 3.4641001e-01 0.0000000e+00 
9.8893099e+00 6.1410201e-01 0.0000000e+00 
9.3999996e+00 1.7320500e-01 0.0000000e+00 
9.5500002e+00 4.3301299e-01 0.0000000e+00 
9.3500004e+00 8.6602502e-02 0.0000000e+00 
9.6000004e+00 5.1961499e-01 0.0000000e+00 
9.7873602e+00 6.3313198e-01 0.0000000e+00 
9.3999996e+00 3.4641001e-01 0.0000000e+00 
9.3000002e+00 0.0000000e+00 0.0000000e+00 
1.0000000e+01 6.9999999e-01 0.0000000e+00 
9.3500004e+00 2.5980800e-01 0.0000000e+00 
9.4499998e+00 4.3301299e-01 0.0000000e+00 
9.6772203e+00 6.2931901e-01 0.0000000e+00 
9.3000002e+00 1.7320500e-01 0.0000000e+00 
9.8485203e+00 7.1224803e-01 0.0000000e+00 
9.5041599e+00 5.3742099e-01 0.0000000e+00 
9.2500000e+00 8.6602502e-02 0.0000000e+00 
9.5762100e+00 6.3882500e-01 0.0000000e+00 
9.7494297e+00 7.2565800e-01 0.0000000e+00 
9.3000002e+00 3.4641001e-01 0.0000000e+00 
9.3420296e+00 4.3454701e-01 0.0000000e+00 
9.2500000e+00 2.5980800e-01 0.0000000e+00 
9.9096899e+00 7.9136300e-01 0.0000000e+00 
1.0000000e+01 8.0000001e-01 0.0000000e+00 
9.1999998e+00 0.0000000e+00 0.0000000e+00 
9.6503296e+00 7.3906797e-01 0.0000000e+00 
9.1999998e+00 1.7320500e-01 0.0000000e+00 
9.3813105e+00 5.4442602e-01 0.0000000e+00 
9.8105898e+00 8.0477297e-01 0.0000000e+00 
9.4674196e+00 6.5563202e-01 0.0000000e+00 
9.1499996e+00 8.6602502e-02 0.0000000e+00 
9.7114897e+00 8.1818300e-01 0.0000000e+00 
9.1999998e+00 3.4641001e-01 0.0000000e+00 
9.5512304e+00 7.5247800e-01 0.0000000e+00 
9.2865801e+00 5.0924700e-01 0.0000000e+00 
9.2342796e+00 4.2777699e-01 0.0000000e+00 
9.1499996e+00 2.5980800e-01 0.0000000e+00 
9.8717499e+00 8.8388801e-01 0.0000000e+00 
1.0000000e+01 8.9999998e-01 0.0000000e+00 
9.1000004e+00 0.0000000e+00 0.0000000e+00 
9.1000004e+00 1.7320500e-01 0.0000000e+00 
9.6124001e+00 8.3159399e-01 0.0000000e+00 
9.7726603e+00 8.9729899e-01 0.0000000e+00 
9.3619204e+00 6.7122602e-01 0.0000000e+00 
9.2737198e+00 5.9348202e-01 0.0000000e+00 
9.4521399e+00 7.6588798e-01 0.0000000e+00 
9.2042999e+00 5.2308202e-01 0.0000000e+00 
9.0500002e+00 8.6602502e-02 0.0000000e+00 
9.9329100e+00 9.6300399e-01 0.0000000e+00 
9.6735601e+00 9.1070902e-01 0.0000000e+00 
9.1368198e+00 4.4975999e-01 0.0000000e+00 
9.5132999e+00 8.4500402e-01 0.0000000e+00 
9.0923996e+00 3.6564499e-01 0.0000000e+00 
9.0500002e+00 2.5980800e-01 0.0000000e+00 
9.8338203e+00 9.7641402e-01 0.0000000e+00 
1.0000000e+01 1.0000000e+00 0.0000000e+00 
9.0000000e+00 0.0000000e+00 0.0000000e+00 
9.3530397e+00 7.7929902e-01 0.0000000e+00 
9.0000000e+00 1.7320500e-01 0.0000000e+00 
9.5744600e+00 9.2411900e-01 0.0000000e+00 
9.2438698e+00 6.8863100e-01 0.0000000e+00 
9.7347202e+00 9.8982400e-01 0.0000000e+00 
9.1771202e+00 6.1455202e-01 0.0000000e+00 
9.4141998e+00 8.5841399e-01 0.0000000e+00 
9.1068001e+00 5.4364800e-01 0.0000000e+00 
9.9044905e+00 1.0417700e+00 0.0000000e+00 
8.9499998e+00 8.6602502e-02 0.0000000e+00 
9.6356201e+00 1.0032300e+00 0.0000000e+00 
9.0417004e+00 4.7562101e-01 0.0000000e+00 
9.4753599e+00 9.3752903e-01 0.0000000e+00 
8.9499998e+00 2.5980800e-01 0.0000000e+00 
8.9784098e+00 3.7431899e-01 0.0000000e+00 
9.7958803e+00 1.0689400e+00 0.0000000e+00 
1.0000000e+01 1.1000000e+00 0.0000000e+00 
8.8999996e+00 0.0000000e+00 0.0000000e+00 
9.2132702e+00 7.8782201e-01 0.0000000e+00 
9.1461802e+00 7.1470100e-01 0.0000000e+00 
8.8999996e+00 1.7320500e-01 0.0000000e+00 
9.5365295e+00 1.0166399e+00 0.0000000e+00 
9.0804300e+00 6.3953602e-01 0.0000000e+00 
9.6967897e+00 1.0823500e+00 0.0000000e+00 
9.2791595e+00 8.6298501e-01 0.0000000e+00 
9.3762703e+00 9.5093900e-01 0.0000000e+00 
9.0110798e+00 5.7062602e-01 0.0000000e+00 
9.8643503e+00 1.1422800e+00 0.0000000e+00 
8.8500004e+00 8.6602502e-02 0.0000000e+00 
8.8924799e+00 3.3931199e-01 0.0000000e+00 
8.9442501e+00 4.9722099e-01 0.0000000e+00 
9.5976896e+00 1.0957600e+00 0.0000000e+00 
9.4374304e+00 1.0300500e+00 0.0000000e+00 
8.8500004e+00 2.5980800e-01 0.0000000e+00 
9.7579498e+00 1.1614600e+00 0.0000000e+00 
9.1158600e+00 8.0676198e-01 0.0000000e+00 
8.8780699e+00 4.2282000e-01 0.0000000e+00 
1.0000000e+01 1.2000000e+00 0.0000000e+00 
8.8000002e+00 0.0000000e+00 0.0000000e+00 
9.0481195e+00 7.3358703e-01 0.0000000e+00 
9.1810904e+00 8.8230300e-01 0.0000000e+00 
9.2557602e+00 9.4870597e-01 0.0000000e+00 
8.9842997e+00 6.5732199e-01 0.0000000e+00 
8.8000002e+00 1.7320500e-01 0.0000000e+00 
9.4985905e+00 1.1091700e+00 0.0000000e+00 
9.6588497e+00 1.1748700e+00 0.0000000e+00 
9.9182100e+00 1.2271700e+00 0.0000000e+00 
9.3251104e+00 1.0312500e+00 0.0000000e+00 
8.9135799e+00 5.8930397e-01 0.0000000e+00 
8.8084297e+00 3.5165700e-01 0.0000000e+00 
8.7500000e+00 8.6602502e-02 0.0000000e+00 
9.8191099e+00 1.2405800e+00 0.0000000e+00 
9.3931599e+00 1.1044700e+00 0.0000000e+00 
8.8464403e+00 5.1585698e-01 0.0000000e+00 
9.5597496e+00 1.1882800e+00 0.0000000e+00 
8.7500000e+00 2.5980800e-01 0.0000000e+00 
9.0928097e+00 9.0680802e-01 0.0000000e+00 
9.0184002e+00 8.2787198e-01 0.0000000e+00 
9.7200098e+00 1.2539901e+00 0.0000000e+00 
8.9546299e+00 7.5233299e-01 0.0000000e+00 
9.1608400e+00 9.7992098e-01 0.0000000e+00 
8.7830696e+00 4.4794399e-01 0.0000000e+00 
1.0000000e+01 1.3000000e+00 0.0000000e+00 
8.6999998e+00 0.0000000e+00 0.0000000e+00 
8.8883896e+00 6.7804497e-01 0.0000000e+00 
9.2278700e+00 1.0539600e+00 0.0000000e+00 
9.4606600e+00 1.2017000e+00 0.0000000e+00 
8.6918802e+00 1.9270100e-01 0.0000000e+00 
9.6209202e+00 1.2674000e+00 0.0000000e+00 
9.8934698e+00 1.3188500e+00 0.0000000e+00 
9.2957001e+00 1.1266800e+00 0.0000000e+00 
8.8160496e+00 6.0906202e-01 0.0000000e+00 
8.7121201e+00 3.7280300e-01 0.0000000e+00 
9.7811699e+00 1.3331100e+00 0.0000000e+00 
9.3628101e+00 1.2006400e+00 0.0000000e+00 
8.7522202e+00 5.4296398e-01 0.0000000e+00 
8.9969301e+00 9.2822403e-01 0.0000000e+00 
9.5218201e+00 1.2808100e+00 0.0000000e+00 
9.0639296e+00 1.0024101e+00 0.0000000e+00 
8.9203396e+00 8.4596699e-01 0.0000000e+00 
8.6267500e+00 1.0301200e-01 0.0000000e+00 
8.8568802e+00 7.7282602e-01 0.0000000e+00 
9.1301403e+00 1.0745500e+00 0.0000000e+00 
9.6820803e+00 1.3465199e+00 0.0000000e+00 
8.6461897e+00 3.0343899e-01 0.0000000e+00 
8.6854296e+00 4.6907300e-01 0.0000000e+00 
8.7924404e+00 7.0606899e-01 0.0000000e+00 
1.0000000e+01 1.4000000e+00 0.0000000e+00 
8.6000004e+00 0.0000000e+00 0.0000000e+00 
9.1987696e+00 1.1492000e+00 0.0000000e+00 
9.4227200e+00 1.2942200e+00 0.0000000e+00 
9.8423405e+00 1.4122200e+00 0.0000000e+00 
9.5829802e+00 1.3599300e+00 0.0000000e+00 
9.2651100e+00 1.2213700e+00 0.0000000e+00 
8.7203903e+00 6.3765901e-01 0.0000000e+00 
8.5783300e+00 2.3014100e-01 0.0000000e+00 
8.6154900e+00 3.9815599e-01 0.0000000e+00 
9.7432404e+00 1.4256300e+00 0.0000000e+00 
8.8996496e+00 9.4893199e-01 0.0000000e+00 
8.9663000e+00 1.0233800e+00 0.0000000e+00 
9.3332996e+00 1.2944700e+00 0.0000000e+00 
8.6545601e+00 5.6251901e-01 0.0000000e+00 
8.8232002e+00 8.6615598e-01 0.0000000e+00 
9.0328102e+00 1.0973001e+00 0.0000000e+00 
8.5388403e+00 7.1274497e-02 0.0000000e+00 
9.4838800e+00 1.3733400e+00 0.0000000e+00 
8.7642403e+00 8.0582702e-01 0.0000000e+00 
9.1010399e+00 1.1701699e+00 0.0000000e+00 
9.6441402e+00 1.4390399e+00 0.0000000e+00 
8.5491400e+00 3.2567400e-01 0.0000000e+00 
8.5171900e+00 1.6373500e-01 0.0000000e+00 
8.5903702e+00 4.9454200e-01 0.0000000e+00 
8.6965504e+00 7.3207003e-01 0.0000000e+00 
9.1679201e+00 1.2442800e+00 0.0000000e+00 
1.0000000e+01 1.5000000e+00 0.0000000e+00 
8.5000000e+00 0.0000000e+00 0.0000000e+00 
9.9187202e+00 1.5001400e+00 0.0000000e+00 
9.3847904e+00 1.3867500e+00 0.0000000e+00 
9.8044004e+00 1.5047500e+00 0.0000000e+00 
8.6287603e+00 6.5904301e-01 0.0000000e+00 
9.5450497e+00 1.4524500e+00 0.0000000e+00 
9.2358704e+00 1.3168499e+00 0.0000000e+00 
8.5254898e+00 4.2105001e-01 0.0000000e+00 
8.4849596e+00 2.5780100e-01 0.0000000e+00 
8.8687496e+00 1.0439600e+00 0.0000000e+00 
8.9374199e+00 1.1185300e+00 0.0000000e+00 
9.7053099e+00 1.5181600e+00 0.0000000e+00 
8.7996702e+00 9.7555703e-01 0.0000000e+00 
8.4502602e+00 8.9625701e-02 0.0000000e+00 
9.0043802e+00 1.1929899e+00 0.0000000e+00 
[...]
POINT_DATA 5817
FIELD FieldData 2
VELOCITY 3 5817  float
0.0000000e+00 0.0000000e+00 0.0000000e+00 
0.0000000e+00 0.0000000e+00 0.0000000e+00 
1.1204798e+00 3.7484191e-02 0.0000000e+00 
1.0956031e+00 1.8980842e-02 0.0000000e+00 
0.0000000e+00 0.0000000e+00 0.0000000e+00 
8.1250733e-01 -6.4322902e-03 0.0000000e+00 
8.2610214e-01 3.8680551e-03 0.0000000e+00 
1.0904084e+00 1.7564967e-03 0.0000000e+00 
8.1831956e-01 2.3244289e-03 0.0000000e+00 
9.2029488e-01 1.0164669e-02 0.0000000e+00 
0.0000000e+00 0.0000000e+00 0.0000000e+00 
8.9716226e-01 1.0773988e-03 0.0000000e+00 
8.1666714e-01 -1.5569453e-03 0.0000000e+00 
1.0882007e+00 -1.5861824e-03 0.0000000e+00 
8.8966697e-01 -2.7734956e-03 0.0000000e+00 
8.8365442e-01 -6.4864522e-03 0.0000000e+00 
8.8616407e-01 -7.4799689e-03 0.0000000e+00 
0.0000000e+00 0.0000000e+00 0.0000000e+00 
8.8034093e-01 -5.8744554e-03 0.0000000e+00 
8.1552052e-01 -5.4604243e-03 0.0000000e+00 
8.8357836e-01 -6.5630763e-03 0.0000000e+00 
8.8875735e-01 -7.3311520e-03 0.0000000e+00 
1.0817159e+00 -3.7269350e-03 0.0000000e+00 
8.7619162e-01 -9.6879257e-03 0.0000000e+00 
8.9808315e-01 -8.4131341e-03 0.0000000e+00 
0.0000000e+00 0.0000000e+00 0.0000000e+00 
8.8320982e-01 -1.1729689e-02 0.0000000e+00 
8.7723458e-01 -8.9151198e-03 0.0000000e+00 
8.7213695e-01 -1.3021419e-02 0.0000000e+00 
8.1606174e-01 -8.4777297e-03 0.0000000e+00 
8.9555126e-01 -1.0217648e-02 0.0000000e+00 
1.0711013e+00 -5.8562304e-03 0.0000000e+00 
8.7828863e-01 -1.4954425e-02 0.0000000e+00 
8.8876414e-01 -1.4808200e-02 0.0000000e+00 
8.9866906e-01 -1.1614510e-02 0.0000000e+00 
0.0000000e+00 0.0000000e+00 0.0000000e+00 
8.8400537e-01 -1.7645074e-02 0.0000000e+00 
8.6996830e-01 -1.0891112e-02 0.0000000e+00 
8.6755931e-01 -1.6206773e-02 0.0000000e+00 
8.9379102e-01 -1.5965369e-02 0.0000000e+00 
8.1875145e-01 -1.1492591e-02 0.0000000e+00 
8.7333119e-01 -1.8396644e-02 0.0000000e+00 
1.0562011e+00 -8.1151277e-03 0.0000000e+00 
8.7914622e-01 -2.1114806e-02 0.0000000e+00 
8.9113611e-01 -1.9553348e-02 0.0000000e+00 
8.6223894e-01 -1.9154878e-02 0.0000000e+00 
0.0000000e+00 0.0000000e+00 0.0000000e+00 
9.0090984e-01 -1.5580367e-02 0.0000000e+00 
8.6187512e-01 -1.2809341e-02 0.0000000e+00 
8.6820769e-01 -2.1811428e-02 0.0000000e+00 
8.8648295e-01 -2.3350550e-02 0.0000000e+00 
8.2374471e-01 -1.4756215e-02 0.0000000e+00 
8.9659154e-01 -2.0363474e-02 0.0000000e+00 
8.7503976e-01 -2.5422463e-02 0.0000000e+00 
1.0368220e+00 -1.0433680e-02 0.0000000e+00 
8.8234657e-01 -2.7576029e-02 0.0000000e+00 
8.9316392e-01 -2.4677774e-02 0.0000000e+00 
8.5604328e-01 -2.2067839e-02 0.0000000e+00 
8.6232346e-01 -2.5587028e-02 0.0000000e+00 
8.5327250e-01 -1.5031908e-02 0.0000000e+00 
9.0142226e-01 -2.1067981e-02 0.0000000e+00 
9.0432274e-01 -1.8266721e-02 0.0000000e+00 
0.0000000e+00 0.0000000e+00 0.0000000e+00 
8.8960093e-01 -2.9075744e-02 0.0000000e+00 
8.3078283e-01 -1.8095952e-02 0.0000000e+00 
8.6885685e-01 -3.0434230e-02 0.0000000e+00 
8.9835507e-01 -2.5302870e-02 0.0000000e+00 
8.7780070e-01 -3.2770496e-02 0.0000000e+00 
1.0133747e+00 -1.2224410e-02 0.0000000e+00 
8.9528102e-01 -2.9733254e-02 0.0000000e+00 
8.4895855e-01 -2.5139112e-02 0.0000000e+00 
8.8579583e-01 -3.3828750e-02 0.0000000e+00 
8.6195928e-01 -3.2134507e-02 0.0000000e+00 
8.5559875e-01 -2.9042413e-02 0.0000000e+00 
8.4427112e-01 -1.7755225e-02 0.0000000e+00 
9.0343076e-01 -2.5479022e-02 0.0000000e+00 
9.0768015e-01 -2.0998456e-02 0.0000000e+00 
0.0000000e+00 0.0000000e+00 0.0000000e+00 
8.3856159e-01 -2.1013191e-02 0.0000000e+00 
8.9194572e-01 -3.4538336e-02 0.0000000e+00 
9.0085858e-01 -2.9996909e-02 0.0000000e+00 
8.7295586e-01 -3.8110346e-02 0.0000000e+00 
8.6478639e-01 -3.7590183e-02 0.0000000e+00 
8.8176215e-01 -3.8883142e-02 0.0000000e+00 
8.5750943e-01 -3.6311463e-02 0.0000000e+00 
9.8633724e-01 -1.2916787e-02 0.0000000e+00 
9.0853429e-01 -2.5262028e-02 0.0000000e+00 
8.9794230e-01 -3.4872625e-02 0.0000000e+00 
8.5024863e-01 -3.4289382e-02 0.0000000e+00 
8.8835609e-01 -3.9662167e-02 0.0000000e+00 
8.4136277e-01 -3.0584116e-02 0.0000000e+00 
8.3471447e-01 -2.1213252e-02 0.0000000e+00 
9.0627015e-01 -2.9859442e-02 0.0000000e+00 
9.1172725e-01 -2.3432765e-02 0.0000000e+00 
0.0000000e+00 0.0000000e+00 0.0000000e+00 
8.7743098e-01 -4.4233009e-02 0.0000000e+00 
8.4568954e-01 -2.4405515e-02 0.0000000e+00 
8.9474678e-01 -4.0070225e-02 0.0000000e+00 
8.6722535e-01 -4.4505943e-02 0.0000000e+00 
9.0375125e-01 -3.4807604e-02 0.0000000e+00 
8.5983747e-01 -4.3108460e-02 0.0000000e+00 
8.8447106e-01 -4.5098964e-02 0.0000000e+00 
8.5224760e-01 -4.1748725e-02 0.0000000e+00 
9.1119850e-01 -2.8578453e-02 0.0000000e+00 
9.5651805e-01 -1.4643799e-02 0.0000000e+00 
9.0097117e-01 -4.0071968e-02 0.0000000e+00 
8.4567124e-01 -3.9889876e-02 0.0000000e+00 
8.9127415e-01 -4.5601562e-02 0.0000000e+00 
8.2496887e-01 -2.5205689e-02 0.0000000e+00 
8.3310878e-01 -3.6012378e-02 0.0000000e+00 
9.0944797e-01 -3.4357574e-02 0.0000000e+00 
9.1599971e-01 -2.5673984e-02 0.0000000e+00 
0.0000000e+00 0.0000000e+00 0.0000000e+00 
8.7026572e-01 -5.1647205e-02 0.0000000e+00 
8.6260486e-01 -5.0765634e-02 0.0000000e+00 
8.5059649e-01 -3.0214820e-02 0.0000000e+00 
8.9792687e-01 -4.5673165e-02 0.0000000e+00 
8.5476106e-01 -4.9132258e-02 0.0000000e+00 
9.0705347e-01 -3.9689172e-02 0.0000000e+00 
8.7806654e-01 -5.2344963e-02 0.0000000e+00 
8.8749176e-01 -5.1477157e-02 0.0000000e+00 
8.4687120e-01 -4.7541384e-02 0.0000000e+00 
9.1486228e-01 -3.2981217e-02 0.0000000e+00 
9.1592991e-01 -2.1835925e-02 0.0000000e+00 
8.2282609e-01 -3.5932992e-02 0.0000000e+00 
8.4011096e-01 -4.4916380e-02 0.0000000e+00 
9.0442020e-01 -4.5341391e-02 0.0000000e+00 
8.9461225e-01 -5.1609300e-02 0.0000000e+00 
8.1953990e-01 -3.1232536e-02 0.0000000e+00 
9.1297674e-01 -3.8925141e-02 0.0000000e+00 
8.6555547e-01 -5.8025889e-02 0.0000000e+00 
8.3163851e-01 -4.2115606e-02 0.0000000e+00 
9.2070091e-01 -2.7724734e-02 0.0000000e+00 
0.0000000e+00 0.0000000e+00 0.0000000e+00 
8.5728538e-01 -5.7031367e-02 0.0000000e+00 
8.7368608e-01 -5.8834352e-02 0.0000000e+00 
8.8146043e-01 -5.8123425e-02 0.0000000e+00 
8.4901774e-01 -5.5131368e-02 0.0000000e+00 
8.6039740e-01 -4.0011376e-02 0.0000000e+00 
9.0153843e-01 -5.1333487e-02 0.0000000e+00 
9.1075361e-01 -4.4627547e-02 0.0000000e+00 
9.2034668e-01 -3.2326221e-02 0.0000000e+00 
8.8969946e-01 -5.8107577e-02 0.0000000e+00 
8.4018809e-01 -5.3590234e-02 0.0000000e+00 
8.1643933e-01 -3.8070548e-02 0.0000000e+00 
8.8419086e-01 -3.5432562e-02 0.0000000e+00 
9.1873878e-01 -3.7788033e-02 0.0000000e+00 
8.9710802e-01 -5.7317536e-02 0.0000000e+00 
8.3262140e-01 -5.0927483e-02 0.0000000e+00 
9.0829182e-01 -5.0661720e-02 0.0000000e+00 
8.1565148e-01 -3.1218547e-02 0.0000000e+00 
8.6996871e-01 -6.5424241e-02 0.0000000e+00 
8.6061329e-01 -6.4882517e-02 0.0000000e+00 
9.1692638e-01 -4.3536130e-02 0.0000000e+00 
8.5190094e-01 -6.3367799e-02 0.0000000e+00 
8.7829101e-01 -6.5441921e-02 0.0000000e+00 
8.2609791e-01 -4.8260607e-02 0.0000000e+00 
9.2567337e-01 -2.9597534e-02 0.0000000e+00 
0.0000000e+00 0.0000000e+00 0.0000000e+00 
8.4312564e-01 -6.1542429e-02 0.0000000e+00 
8.8638109e-01 -6.5125704e-02 0.0000000e+00 
9.0558249e-01 -5.7039157e-02 0.0000000e+00 
8.6076218e-01 -3.4297585e-02 0.0000000e+00 
9.1486901e-01 -4.9611110e-02 0.0000000e+00 
9.2465883e-01 -3.5585329e-02 0.0000000e+00 
8.9421278e-01 -6.4281471e-02 0.0000000e+00 
8.3349353e-01 -5.9733111e-02 0.0000000e+00 
8.0923253e-01 -4.4838879e-02 0.0000000e+00 
9.2293477e-01 -4.2086177e-02 0.0000000e+00 
9.0176111e-01 -6.3134193e-02 0.0000000e+00 
8.2507950e-01 -5.7064332e-02 0.0000000e+00 
8.6535525e-01 -7.2699167e-02 0.0000000e+00 
9.1258973e-01 -5.6012288e-02 0.0000000e+00 
8.7423295e-01 -7.2880760e-02 0.0000000e+00 
8.5508162e-01 -7.2019584e-02 0.0000000e+00 
8.9321744e-01 -2.1902904e-02 0.0000000e+00 
8.4590340e-01 -7.0484512e-02 0.0000000e+00 
8.8271379e-01 -7.2522357e-02 0.0000000e+00 
9.2123896e-01 -4.8193965e-02 0.0000000e+00 
7.9467523e-01 -3.9392788e-02 0.0000000e+00 
8.1918907e-01 -5.3133931e-02 0.0000000e+00 
8.3716804e-01 -6.9020115e-02 0.0000000e+00 
9.3101418e-01 -3.1352319e-02 0.0000000e+00 
0.0000000e+00 0.0000000e+00 0.0000000e+00 
8.9120555e-01 -7.1670920e-02 0.0000000e+00 
9.1008234e-01 -6.2770188e-02 0.0000000e+00 
9.2884028e-01 -4.0299773e-02 0.0000000e+00 
9.1935658e-01 -5.4612368e-02 0.0000000e+00 
8.9909911e-01 -7.0433788e-02 0.0000000e+00 
8.2706469e-01 -6.7247428e-02 0.0000000e+00 
8.3126223e-01 -4.0073704e-02 0.0000000e+00 
8.0739546e-01 -4.8830770e-02 0.0000000e+00 
9.2747986e-01 -4.6468038e-02 0.0000000e+00 
8.6026204e-01 -8.0476016e-02 0.0000000e+00 
8.6974698e-01 -8.0755733e-02 0.0000000e+00 
9.0683019e-01 -6.8746619e-02 0.0000000e+00 
8.1656712e-01 -6.3983589e-02 0.0000000e+00 
8.4933388e-01 -7.9663284e-02 0.0000000e+00 
8.7894964e-01 -8.0479078e-02 0.0000000e+00 
6.7275566e-01 -2.4981187e-03 0.0000000e+00 
9.1728801e-01 -6.1364025e-02 0.0000000e+00 
8.4061742e-01 -7.8631513e-02 0.0000000e+00 
8.8784271e-01 -7.9518877e-02 0.0000000e+00 
9.2596555e-01 -5.2868593e-02 0.0000000e+00 
7.8558838e-01 -4.2618871e-02 0.0000000e+00 
8.8236600e-01 -4.5495085e-02 0.0000000e+00 
8.0892098e-01 -6.0739871e-02 0.0000000e+00 
8.3070469e-01 -7.6594822e-02 0.0000000e+00 
8.9641160e-01 -7.8267716e-02 0.0000000e+00 
9.3651766e-01 -3.2867640e-02 0.0000000e+00 
0.0000000e+00 0.0000000e+00 0.0000000e+00 
9.3529737e-01 -3.7557323e-02 0.0000000e+00 
9.1501570e-01 -6.8485506e-02 0.0000000e+00 
9.3348116e-01 -4.4411004e-02 0.0000000e+00 
8.2039958e-01 -7.3724106e-02 0.0000000e+00 
9.2428368e-01 -5.9607495e-02 0.0000000e+00 
9.0458602e-01 -7.6470241e-02 0.0000000e+00 
8.0065614e-01 -5.6242447e-02 0.0000000e+00 
8.0018568e-01 -3.5599716e-02 0.0000000e+00 
8.6491507e-01 -8.9138523e-02 0.0000000e+00 
8.7492168e-01 -8.8732205e-02 0.0000000e+00 
9.3232191e-01 -5.0816145e-02 0.0000000e+00 
8.5499150e-01 -8.9411199e-02 0.0000000e+00 
7.5838566e-01 -3.3536397e-02 0.0000000e+00 
8.8444632e-01 -8.7892562e-02 0.0000000e+00 
8.4469557e-01 -8.8517383e-02 0.0000000e+00 
9.1248947e-01 -7.4430734e-02 0.0000000e+00 
8.0947322e-01 -7.0449315e-02 0.0000000e+00 
9.2244416e-01 -6.6698886e-02 0.0000000e+00 
8.3369559e-01 -8.6871363e-02 0.0000000e+00 
8.9332402e-01 -8.6514249e-02 0.0000000e+00 
9.3100691e-01 -5.7518478e-02 0.0000000e+00 
7.7791005e-01 -5.1933140e-02 0.0000000e+00 
9.3939245e-01 -4.2076908e-02 0.0000000e+00 
8.2290858e-01 -8.4617823e-02 0.0000000e+00 
8.8292444e-01 -3.4867432e-02 0.0000000e+00 
9.0205902e-01 -8.4592700e-02 0.0000000e+00 
7.9991025e-01 -6.5687083e-02 0.0000000e+00 
9.4231284e-01 -3.4303557e-02 0.0000000e+00 
0.0000000e+00 0.0000000e+00 0.0000000e+00 
9.3854666e-01 -4.8486475e-02 0.0000000e+00 
9.2040592e-01 -7.4188955e-02 0.0000000e+00 
8.1225622e-01 -8.1920221e-02 0.0000000e+00 
9.1045785e-01 -8.2478687e-02 0.0000000e+00 
9.2954212e-01 -6.4565040e-02 0.0000000e+00 
8.7046391e-01 -9.7686842e-02 0.0000000e+00 
8.5996145e-01 -9.8213173e-02 0.0000000e+00 
7.9307681e-01 -5.9555009e-02 0.0000000e+00 
8.8059735e-01 -9.6786402e-02 0.0000000e+00 
8.4905863e-01 -9.8330006e-02 0.0000000e+00 
7.7139366e-01 -4.3827072e-02 0.0000000e+00 
9.1725218e-01 -7.9816215e-02 0.0000000e+00 
9.3756878e-01 -5.5151202e-02 0.0000000e+00 
8.3811826e-01 -9.7347721e-02 0.0000000e+00 
8.9032483e-01 -9.5395386e-02 0.0000000e+00 
8.0094755e-01 -7.7664651e-02 0.0000000e+00 
8.3133084e-01 -2.0624867e-02 0.0000000e+00 
8.2638609e-01 -9.5560022e-02 0.0000000e+00 
8.9952821e-01 -9.3315512e-02 0.0000000e+00 
9.4517028e-01 -3.9523292e-02 0.0000000e+00 
9.2793030e-01 -7.1971446e-02 0.0000000e+00 
9.3646491e-01 -6.2140577e-02 0.0000000e+00 
7.7479172e-01 -5.2657481e-02 0.0000000e+00 
9.4457203e-01 -4.5895346e-02 0.0000000e+00 
7.8949964e-01 -7.2495945e-02 0.0000000e+00 
9.0829623e-01 -9.1016367e-02 0.0000000e+00 
8.1475055e-01 -9.3285583e-02 0.0000000e+00 
8.4810901e-01 -4.1380629e-02 0.0000000e+00 
0.0000000e+00 0.0000000e+00 0.0000000e+00 
9.4831449e-01 -3.5513226e-02 0.0000000e+00 
9.4390637e-01 -5.2519951e-02 0.0000000e+00 
8.6580229e-01 -1.0733332e-01 0.0000000e+00 
8.0295300e-01 -8.9776613e-02 0.0000000e+00 
8.7667882e-01 -1.0630619e-01 0.0000000e+00 
9.1671801e-01 -8.8229448e-02 0.0000000e+00 
8.5484552e-01 -1.0799648e-01 0.0000000e+00 
9.2470181e-01 -8.1834100e-02 0.0000000e+00 
9.3523645e-01 -6.9487393e-02 0.0000000e+00 
8.4322816e-01 -1.0759945e-01 0.0000000e+00 
8.8680470e-01 -1.0475250e-01 0.0000000e+00 
7.8093523e-01 -6.6927351e-02 0.0000000e+00 
7.5013667e-01 -3.9424241e-02 0.0000000e+00 
8.3133382e-01 -1.0675889e-01 0.0000000e+00 
8.9668882e-01 -1.0255707e-01 0.0000000e+00 
8.4276688e-01 -1.3363824e-02 0.0000000e+00 
9.4313043e-01 -5.9437692e-02 0.0000000e+00 
9.4971609e-01 -4.2170778e-02 0.0000000e+00 
7.9109919e-01 -8.5135058e-02 0.0000000e+00 
8.1852579e-01 -1.0518514e-01 0.0000000e+00 
9.0622300e-01 -1.0012006e-01 0.0000000e+00 
9.3389040e-01 -7.7205397e-02 0.0000000e+00 
9.4225883e-01 -6.6693746e-02 0.0000000e+00 
9.5004416e-01 -4.9655907e-02 0.0000000e+00 
7.6721269e-01 -6.1339736e-02 0.0000000e+00 
9.1508067e-01 -9.7117946e-02 0.0000000e+00 
8.0602556e-01 -1.0261762e-01 0.0000000e+00 
7.7819657e-01 -7.9108059e-02 0.0000000e+00 
8.1885594e-01 -2.3614472e-02 0.0000000e+00 
8.6088634e-01 -1.1764534e-01 0.0000000e+00 
8.7238461e-01 -1.1647572e-01 0.0000000e+00 
9.5446914e-01 -3.6619954e-02 0.0000000e+00 
0.0000000e+00 0.0000000e+00 0.0000000e+00 
8.4877133e-01 -1.1821345e-01 0.0000000e+00 
8.8342011e-01 -1.1480526e-01 0.0000000e+00 
9.4954556e-01 -5.6501832e-02 0.0000000e+00 
7.9289222e-01 -9.8645568e-02 0.0000000e+00 
8.3670169e-01 -1.1794705e-01 0.0000000e+00 
9.2380804e-01 -9.3931541e-02 0.0000000e+00 
8.9393139e-01 -1.1239723e-01 0.0000000e+00 
9.4130111e-01 -7.4296594e-02 0.0000000e+00 
7.2593158e-01 -5.4027744e-02 0.0000000e+00 
8.2388633e-01 -1.1718550e-01 0.0000000e+00 
7.6849663e-01 -7.2518058e-02 0.0000000e+00 
9.0376991e-01 -1.0974251e-01 0.0000000e+00 
9.3233496e-01 -8.7879017e-02 0.0000000e+00 
9.4899124e-01 -6.3647531e-02 0.0000000e+00 
8.9757764e-01 -6.4542834e-03 0.0000000e+00 
7.8010458e-01 -9.3820967e-02 0.0000000e+00 
9.5573640e-01 -4.5962721e-02 0.0000000e+00 
9.1320533e-01 -1.0648505e-01 0.0000000e+00 
8.0998003e-01 -1.1544475e-01 0.0000000e+00 
7.6296365e-01 -6.2871441e-02 0.0000000e+00 
9.5579082e-01 -5.3373024e-02 0.0000000e+00 
7.9663962e-01 -1.1222336e-01 0.0000000e+00 
9.4839436e-01 -7.1139976e-02 0.0000000e+00 
9.4023818e-01 -8.4061548e-02 0.0000000e+00 
9.2243081e-01 -1.0317339e-01 0.0000000e+00 
8.6805463e-01 -1.2740065e-01 0.0000000e+00 
7.6544380e-01 -8.7860316e-02 0.0000000e+00 
7.3450565e-01 -4.5063630e-02 0.0000000e+00 
8.5560179e-01 -1.2873575e-01 0.0000000e+00 
8.7948596e-01 -1.2548879e-01 0.0000000e+00 
8.9077097e-01 -1.2290032e-01 0.0000000e+00 
8.4271061e-01 -1.2944761e-01 0.0000000e+00 
9.6069872e-01 -3.7439834e-02 0.0000000e+00 
0.0000000e+00 0.0000000e+00 0.0000000e+00 
8.2933807e-01 -1.2900205e-01 0.0000000e+00 
9.5552003e-01 -6.0400411e-02 0.0000000e+00 
9.0157509e-01 -1.2007223e-01 0.0000000e+00 
7.8228158e-01 -1.0831370e-01 0.0000000e+00 
6.3627237e-01 5.4946812e-03 0.0000000e+00 
9.3112147e-01 -9.8896712e-02 0.0000000e+00 
9.4773883e-01 -7.8982711e-02 0.0000000e+00 
7.3044229e-01 -5.2606374e-02 0.0000000e+00 
8.1553179e-01 -1.2803070e-01 0.0000000e+00 
9.1146576e-01 -1.1654010e-01 0.0000000e+00 
9.6168107e-01 -4.3342259e-02 0.0000000e+00 
7.5114053e-01 -8.0796853e-02 0.0000000e+00 
8.3382565e-01 -3.7789617e-02 0.0000000e+00 
9.5521766e-01 -6.7746967e-02 0.0000000e+00 
7.6810092e-01 -1.0252529e-01 0.0000000e+00 
8.0051577e-01 -1.2623337e-01 0.0000000e+00 
9.6169269e-01 -5.0046530e-02 0.0000000e+00 
9.3923730e-01 -9.5370024e-02 0.0000000e+00 
9.2125732e-01 -1.1293656e-01 0.0000000e+00 
8.6314863e-01 -1.3898717e-01 0.0000000e+00 
8.7570745e-01 -1.3706334e-01 0.0000000e+00 
7.4539024e-01 -7.1246542e-02 0.0000000e+00 
9.6170020e-01 -5.6962479e-02 0.0000000e+00 
8.4968507e-01 -1.4038408e-01 0.0000000e+00 
7.8599811e-01 -1.2306725e-01 0.0000000e+00 
8.8766938e-01 -1.3420479e-01 0.0000000e+00 
9.5488149e-01 -7.5416826e-02 0.0000000e+00 
9.3023860e-01 -1.0875417e-01 0.0000000e+00 
7.0422101e-01 -4.2242032e-02 0.0000000e+00 
7.5284386e-01 -9.5639184e-02 0.0000000e+00 
8.3571088e-01 -1.4125757e-01 0.0000000e+00 
8.9883411e-01 -1.3099274e-01 0.0000000e+00 
9.4693810e-01 -9.1073737e-02 0.0000000e+00 
8.2180518e-01 -1.4099768e-01 0.0000000e+00 
9.6718234e-01 -3.8228128e-02 0.0000000e+00 
0.0000000e+00 0.0000000e+00 0.0000000e+00 
9.0939230e-01 -1.2709709e-01 0.0000000e+00 
9.6167558e-01 -6.4171597e-02 0.0000000e+00 
7.7054453e-01 -1.1853196e-01 0.0000000e+00 
7.0561457e-01 -1.8040428e-02 0.0000000e+00 
9.3895096e-01 -1.0460144e-01 0.0000000e+00 
8.0691212e-01 -1.4012001e-01 0.0000000e+00 
9.6773952e-01 -4.5557052e-02 0.0000000e+00 
7.2223401e-01 -5.9696034e-02 0.0000000e+00 
9.1983253e-01 -1.2330824e-01 0.0000000e+00 
7.3611641e-01 -8.8123538e-02 0.0000000e+00 
8.0294281e-01 -3.4568451e-02 0.0000000e+00 
9.5429403e-01 -8.6791657e-02 0.0000000e+00 
9.6164101e-01 -7.1693666e-02 0.0000000e+00 
7.5478572e-01 -1.1281096e-01 0.0000000e+00 
7.9052496e-01 -1.3806908e-01 0.0000000e+00 
9.2925704e-01 -1.1870735e-01 0.0000000e+00 
9.6790111e-01 -5.3397320e-02 0.0000000e+00 
9.4698727e-01 -1.0003848e-01 0.0000000e+00 
8.7159163e-01 -1.4909028e-01 0.0000000e+00 
8.5799241e-01 -1.5155756e-01 0.0000000e+00 
8.8419801e-01 -1.4615124e-01 0.0000000e+00 
7.2795749e-01 -7.8075096e-02 0.0000000e+00 
8.4389210e-01 -1.5322763e-01 0.0000000e+00 
8.9648950e-01 -1.4282064e-01 0.0000000e+00 
9.6809614e-01 -6.0472656e-02 0.0000000e+00 
7.7486217e-01 -1.3456933e-01 0.0000000e+00 
9.3845314e-01 -1.1431453e-01 0.0000000e+00 
9.6161062e-01 -7.9565465e-02 0.0000000e+00 
8.2888931e-01 -1.5423965e-01 0.0000000e+00 
9.0768421e-01 -1.3852388e-01 0.0000000e+00 
6.8505681e-01 -5.1680364e-02 0.0000000e+00 
7.3916906e-01 -1.0632815e-01 0.0000000e+00 
9.5467776e-01 -9.5428176e-02 0.0000000e+00 
8.1344551e-01 -1.5391408e-01 0.0000000e+00 
9.1861498e-01 -1.3395464e-01 0.0000000e+00 
9.7354835e-01 -3.8783174e-02 0.0000000e+00 
0.0000000e+00 0.0000000e+00 0.0000000e+00 
7.2484481e-01 -9.6628137e-02 0.0000000e+00 
9.6830839e-01 -6.7825504e-02 0.0000000e+00 
7.9840988e-01 -2.1222914e-02 0.0000000e+00 
7.5805140e-01 -1.2995593e-01 0.0000000e+00 
9.4693941e-01 -1.0936462e-01 0.0000000e+00 
7.9735386e-01 -1.5305033e-01 0.0000000e+00 
9.2865336e-01 -1.2935995e-01 0.0000000e+00 
9.7355127e-01 -4.9641732e-02 0.0000000e+00 
7.1169686e-01 -6.6763625e-02 0.0000000e+00 
7.2575718e-01 -4.9828898e-02 0.0000000e+00 
9.6184593e-01 -9.0542786e-02 0.0000000e+00 
9.6855801e-01 -7.5489245e-02 0.0000000e+00 
7.4132305e-01 -1.2405872e-01 0.0000000e+00 
9.3811083e-01 -1.2415640e-01 0.0000000e+00 
7.7964681e-01 -1.5089588e-01 0.0000000e+00 
9.7393936e-01 -5.6625407e-02 0.0000000e+00 
8.6703026e-01 -1.6233608e-01 0.0000000e+00 
8.8100147e-01 -1.5921058e-01 0.0000000e+00 
8.9394313e-01 -1.5501158e-01 0.0000000e+00 
8.5284251e-01 -1.6524823e-01 0.0000000e+00 
9.5500940e-01 -1.0448875e-01 0.0000000e+00 
8.3774370e-01 -1.6708905e-01 0.0000000e+00 
9.0589935e-01 -1.5071231e-01 0.0000000e+00 
7.0853823e-01 -8.9878164e-02 0.0000000e+00 
8.2156396e-01 -1.6782694e-01 0.0000000e+00 
7.6283371e-01 -1.4746074e-01 0.0000000e+00 
9.7437131e-01 -6.3799366e-02 0.0000000e+00 
9.1758800e-01 -1.4570870e-01 0.0000000e+00 
5.4318464e-01 2.1985497e-03 0.0000000e+00 
6.8125153e-01 -5.5140935e-02 0.0000000e+00 
9.4717693e-01 -1.1926618e-01 0.0000000e+00 
9.6885616e-01 -8.3489329e-02 0.0000000e+00 
7.2416186e-01 -1.1659390e-01 0.0000000e+00 
8.0478060e-01 -1.6817075e-01 0.0000000e+00 