# vtk DataFile Version 4.0
vtk output
ASCII
DATASET UNSTRUCTURED_GRID
POINTS 5817 float
1.0000000e+01 0.0000000e+00 0.0000000e+00 
9.8999996e+00 0.0000000e+00 0.0000000e+00 
1.0000000e+01 1.0000000e-01 0.0000000e+00 
9.8583298e+00 8.8835500e-02 0.0000000e+00 
9.8000002e+00 0.0000000e+00 0.0000000e+00 
1.0000000e+01 2.0000000e-01 0.0000000e+00 
9.8999996e+00 1.7320500e-01 0.0000000e+00 
9.7500000e+00 8.6602502e-02 0.0000000e+00 
9.8000002e+00 1.7320500e-01 0.0000000e+00 
1.0000000e+01 3.0000001e-01 0.0000000e+00 
9.6999998e+00 0.0000000e+00 0.0000000e+00 
9.8583298e+00 2.6650599e-01 0.0000000e+00 
9.6999998e+00 1.7320500e-01 0.0000000e+00 
9.6499996e+00 8.6602502e-02 0.0000000e+00 
9.7500000e+00 2.5980800e-01 0.0000000e+00 
9.9033298e+00 3.4808499e-01 0.0000000e+00 
1.0000000e+01 4.0000001e-01 0.0000000e+00 
9.6000004e+00 0.0000000e+00 0.0000000e+00 
9.8000002e+00 3.4641001e-01 0.0000000e+00 
9.6000004e+00 1.7320500e-01 0.0000000e+00 
9.6499996e+00 2.5980800e-01 0.0000000e+00 
9.8583298e+00 4.2751101e-01 0.0000000e+00 
9.5500002e+00 8.6602502e-02 0.0000000e+00 
9.6999998e+00 3.4641001e-01 0.0000000e+00 
1.0000000e+01 5.0000000e-01 0.0000000e+00 
9.5000000e+00 0.0000000e+00 0.0000000e+00 
9.7500000e+00 4.3301299e-01 0.0000000e+00 
9.5500002e+00 2.5980800e-01 0.0000000e+00 
9.6000004e+00 3.4641001e-01 0.0000000e+00 
9.5000000e+00 1.7320500e-01 0.0000000e+00 
9.8999996e+00 5.1961499e-01 0.0000000e+00 
9.4499998e+00 8.6602502e-02 0.0000000e+00 
9.6499996e+00 4.3301299e-01 0.0000000e+00 
9.8000002e+00 5.1961499e-01 0.0000000e+00 
1.0000000e+01 6.0000002e-01 0.0000000e+00 
9.3999996e+00 0.0000000e+00 0.0000000e+00 
9.6999998e+00 5.1961499e-01 0.0000000e+00 
9.4499998e+00 2.5980800e-01 0.0000000e+00 
9.5000000e+00 3.4641001e-01 0.0000000e+00 
9.8893099e+00 6.1410201e-01 0.0000000e+00 
9.3999996e+00 1.7320500e-01 0.0000000e+00 
9.5500002e+00 4.3301299e-01 0.0000000e+00 
9.3500004e+00 8.6602502e-02 0.0000000e+00 
9.6000004e+00 5.1961499e-01 0.0000000e+00 
9.7873602e+00 6.3313198e-01 0.0000000e+00 
9.3999996e+00 3.4641001e-01 0.0000000e+00 
9.3000002e+00 0.0000000e+00 0.0000000e+00 
1.0000000e+01 6.9999999e-01 0.0000000e+00 
9.3500004e+00 2.5980800e-01 0.0000000e+00 
9.4499998e+00 4.3301299e-01 0.0000000e+00 
9.6772203e+00 6.2931901e-01 0.0000000e+00 
9.3000002e+00 1.7320500e-01 0.0000000e+00 
9.8485203e+00 7.1224803e-01 0.0000000e+00 
9.5041599e+00 5.3742099e-01 0.0000000e+00 
9.2500000e+00 8.6602502e-02 0.0000000e+00 
9.5762100e+00 6.3882500e-01 0.0000000e+00 
9.7494297e+00 7.2565800e-01 0.0000000e+00 
9.3000002e+00 3.4641001e-01 0.0000000e+00 
9.3420296e+00 4.3454701e-01 0.0000000e+00 
9.2500000e+00 2.5980800e-01 0.0000000e+00 
9.9096899e+00 7.9136300e-01 0.0000000e+00 
1.0000000e+01 8.0000001e-01 0.0000000e+00 
9.1999998e+00 0.0000000e+00 0.0000000e+00 
9.6503296e+00 7.3906797e-01 0.0000000e+00 
9.1999998e+00 1.7320500e-01 0.0000000e+00 
9.3813105e+00 5.4442602e-01 0.0000000e+00 
9.8105898e+00 8.0477297e-01 0.0000000e+00 
9.4674196e+00 6.5563202e-01 0.0000000e+00 
9.1499996e+00 8.6602502e-02 0.0000000e+00 
9.7114897e+00 8.1818300e-01 0.0000000e+00 
9.1999998e+00 3.4641001e-01 0.0000000e+00 
9.5512304e+00 7.5247800e-01 0.0000000e+00 
9.2865801e+00 5.0924700e-01 0.0000000e+00 
9.2342796e+00 4.2777699e-01 0.0000000e+00 
9.1499996e+00 2.5980800e-01 0.0000000e+00 
9.8717499e+00 8.8388801e-01 0.0000000e+00 
1.0000000e+01 8.9999998e-01 0.0000000e+00 
9.1000004e+00 0.0000000e+00 0.0000000e+00 
9.1000004e+00 1.7320500e-01 0.0000000e+00 
9.6124001e+00 8.3159399e-01 0.0000000e+00 
9.7726603e+00 8.9729899e-01 0.0000000e+00 
9.3619204e+00 6.7122602e-01 0.0000000e+00 
9.2737198e+00 5.9348202e-01 0.0000000e+00 
9.4521399e+00 7.6588798e-01 0.0000000e+00 
9.2042999e+00 5.2308202e-01 0.0000000e+00 
9.0500002e+00 8.6602502e-02 0.0000000e+00 
9.9329100e+00 9.6300399e-01 0.0000000e+00 
9.6735601e+00 9.1070902e-01 0.0000000e+00 
9.1368198e+00 4.4975999e-01 0.0000000e+00 
9.5132999e+00 8.4500402e-01 0.0000000e+00 
9.0923996e+00 3.6564499e-01 0.0000000e+00 
9.0500002e+00 2.5980800e-01 0.0000000e+00 
9.8338203e+00 9.7641402e-01 0.0000000e+00 
1.0000000e+01 1.0000000e+00 0.0000000e+00 
9.0000000e+00 0.0000000e+00 0.0000000e+00 
9.3530397e+00 7.7929902e-01 0.0000000e+00 
9.0000000e+00 1.7320500e-01 0.0000000e+00 
9.5744600e+00 9.2411900e-01 0.0000000e+00 
9.2438698e+00 6.8863100e-01 0.0000000e+00 
9.7347202e+00 9.8982400e-01 0.0000000e+00 
9.1771202e+00 6.1455202e-01 0.0000000e+00 
9.4141998e+00 8.5841399e-01 0.0000000e+00 
9.1068001e+00 5.4364800e-01 0.0000000e+00 
9.9044905e+00 1.0417700e+00 0.0000000e+00 
8.9499998e+00 8.6602502e-02 0.0000000e+00 
9.6356201e+00 1.0032300e+00 0.0000000e+00 
9.0417004e+00 4.7562101e-01 0.0000000e+00 
9.4753599e+00 9.3752903e-01 0.0000000e+00 
8.9499998e+00 2.5980800e-01 0.0000000e+00 
8.9784098e+00 3.7431899e-01 0.0000000e+00 
9.7958803e+00 1.0689400e+00 0.0000000e+00 
1.0000000e+01 1.1000000e+00 0.0000000e+00 
8.8999996e+00 0.0000000e+00 0.0000000e+00 
9.2132702e+00 7.8782201e-01 0.0000000e+00 
9.1461802e+00 7.1470100e-01 0.0000000e+00 
8.8999996e+00 1.7320500e-01 0.0000000e+00 
9.5365295e+00 1.0166399e+00 0.0000000e+00 
9.0804300e+00 6.3953602e-01 0.0000000e+00 
9.6967897e+00 1.0823500e+00 0.0000000e+00 
9.2791595e+00 8.6298501e-01 0.0000000e+00 
9.3762703e+00 9.5093900e-01 0.0000000e+00 
9.0110798e+00 5.7062602e-01 0.0000000e+00 
9.8643503e+00 1.1422800e+00 0.0000000e+00 
8.8500004e+00 8.6602502e-02 0.0000000e+00 
8.8924799e+00 3.3931199e-01 0.0000000e+00 
8.9442501e+00 4.9722099e-01 0.0000000e+00 
9.5976896e+00 1.0957600e+00 0.0000000e+00 
9.4374304e+00 1.0300500e+00 0.0000000e+00 
8.8500004e+00 2.5980800e-01 0.0000000e+00 
9.7579498e+00 1.1614600e+00 0.0000000e+00 
9.1158600e+00 8.0676198e-01 0.0000000e+00 
8.8780699e+00 4.2282000e-01 0.0000000e+00 
1.0000000e+01 1.2000000e+00 0.0000000e+00 
8.8000002e+00 0.0000000e+00 0.0000000e+00 
9.0481195e+00 7.3358703e-01 0.0000000e+00 
9.1810904e+00 8.8230300e-01 0.0000000e+00 
9.2557602e+00 9.4870597e-01 0.0000000e+00 
8.9842997e+00 6.5732199e-01 0.0000000e+00 
8.8000002e+00 1.7320500e-01 0.0000000e+00 
9.4985905e+00 1.1091700e+00 0.0000000e+00 
9.6588497e+00 1.1748700e+00 0.0000000e+00 
9.9182100e+00 1.2271700e+00 0.0000000e+00 
9.3251104e+00 1.0312500e+00 0.0000000e+00 
8.9135799e+00 5.8930397e-01 0.0000000e+00 
8.8084297e+00 3.5165700e-01 0.0000000e+00 
8.7500000e+00 8.6602502e-02 0.0000000e+00 
9.8191099e+00 1.2405800e+00 0.0000000e+00 
9.3931599e+00 1.1044700e+00 0.0000000e+00 
8.8464403e+00 5.1585698e-01 0.0000000e+00 
9.5597496e+00 1.1882800e+00 0.0000000e+00 
8.7500000e+00 2.5980800e-01 0.0000000e+00 
9.0928097e+00 9.0680802e-01 0.0000000e+00 
9.0184002e+00 8.2787198e-01 0.0000000e+00 
9.7200098e+00 1.2539901e+00 0.0000000e+00 
8.9546299e+00 7.5233299e-01 0.0000000e+00 
9.1608400e+00 9.7992098e-01 0.0000000e+00 
8.7830696e+00 4.4794399e-01 0.0000000e+00 
1.0000000e+01 1.3000000e+00 0.0000000e+00 
8.6999998e+00 0.0000000e+00 0.0000000e+00 
8.8883896e+00 6.7804497e-01 0.0000000e+00 
9.2278700e+00 1.0539600e+00 0.0000000e+00 
9.4606600e+00 1.2017000e+00 0.0000000e+00 
8.6918802e+00 1.9270100e-01 0.0000000e+00 
9.6209202e+00 1.2674000e+00 0.0000000e+00 
9.8934698e+00 1.3188500e+00 0.0000000e+00 
9.2957001e+00 1.1266800e+00 0.0000000e+00 
8.8160496e+00 6.0906202e-01 0.0000000e+00 
8.7121201e+00 3.7280300e-01 0.0000000e+00 
9.7811699e+00 1.3331100e+00 0.0000000e+00 
9.3628101e+00 1.2006400e+00 0.0000000e+00 
8.7522202e+00 5.4296398e-01 0.0000000e+00 
8.9969301e+00 9.2822403e-01 0.0000000e+00 
9.5218201e+00 1.2808100e+00 0.0000000e+00 
9.0639296e+00 1.0024101e+00 0.0000000e+00 
8.9203396e+00 8.4596699e-01 0.0000000e+00 
8.6267500e+00 1.0301200e-01 0.0000000e+00 
8.8568802e+00 7.7282602e-01 0.0000000e+00 
9.1301403e+00 1.0745500e+00 0.0000000e+00 
9.6820803e+00 1.3465199e+00 0.0000000e+00 
8.6461897e+00 3.0343899e-01 0.0000000e+00 
8.6854296e+00 4.6907300e-01 0.0000000e+00 
8.7924404e+00 7.0606899e-01 0.0000000e+00 
1.0000000e+01 1.4000000e+00 0.0000000e+00 
8.6000004e+00 0.0000000e+00 0.0000000e+00 
9.1987696e+00 1.1492000e+00 0.0000000e+00 
9.4227200e+00 1.2942200e+00 0.0000000e+00 
9.8423405e+00 1.4122200e+00 0.0000000e+00 
9.5829802e+00 1.3599300e+00 0.0000000e+00 
9.2651100e+00 1.2213700e+00 0.0000000e+00 
8.7203903e+00 6.3765901e-01 0.0000000e+00 
8.5783300e+00 2.3014100e-01 0.0000000e+00 
8.6154900e+00 3.9815599e-01 0.0000000e+00 
9.7432404e+00 1.4256300e+00 0.0000000e+00 
8.8996496e+00 9.4893199e-01 0.0000000e+00 
8.9663000e+00 1.0233800e+00 0.0000000e+00 
9.3332996e+00 1.2944700e+00 0.0000000e+00 
8.6545601e+00 5.6251901e-01 0.0000000e+00 
8.8232002e+00 8.6615598e-01 0.0000000e+00 
9.0328102e+00 1.0973001e+00 0.0000000e+00 
8.5388403e+00 7.1274497e-02 0.0000000e+00 
9.4838800e+00 1.3733400e+00 0.0000000e+00 
8.7642403e+00 8.0582702e-01 0.0000000e+00 
9.1010399e+00 1.1701699e+00 0.0000000e+00 
9.6441402e+00 1.4390399e+00 0.0000000e+00 
8.5491400e+00 3.2567400e-01 0.0000000e+00 
8.5171900e+00 1.6373500e-01 0.0000000e+00 
8.5903702e+00 4.9454200e-01 0.0000000e+00 
8.6965504e+00 7.3207003e-01 0.0000000e+00 
9.1679201e+00 1.2442800e+00 0.0000000e+00 
1.0000000e+01 1.5000000e+00 0.0000000e+00 
8.5000000e+00 0.0000000e+00 0.0000000e+00 
9.9187202e+00 1.5001400e+00 0.0000000e+00 
9.3847904e+00 1.3867500e+00 0.0000000e+00 
9.8044004e+00 1.5047500e+00 0.0000000e+00 
8.6287603e+00 6.5904301e-01 0.0000000e+00 
9.5450497e+00 1.4524500e+00 0.0000000e+00 
9.2358704e+00 1.3168499e+00 0.0000000e+00 
8.5254898e+00 4.2105001e-01 0.0000000e+00 
8.4849596e+00 2.5780100e-01 0.0000000e+00 
8.8687496e+00 1.0439600e+00 0.0000000e+00 
8.9374199e+00 1.1185300e+00 0.0000000e+00 
9.7053099e+00 1.5181600e+00 0.0000000e+00 
8.7996702e+00 9.7555703e-01 0.0000000e+00 
8.4502602e+00 8.9625701e-02 0.0000000e+00 
9.0043802e+00 1.1929899e+00 0.0000000e+00 
[...]
POINT_DATA 5817
FIELD FieldData 2
VELOCITY 3 5817  float
0.0000000e+00 0.0000000e+00 0.0000000e+00 
0.0000000e+00 0.0000000e+00 0.0000000e+00 
1.1105033e+00 3.6741596e-02 0.0000000e+00 
1.0846354e+00 1.8289488e-02 0.0000000e+00 
0.0000000e+00 0.0000000e+00 0.0000000e+00 
8.0737430e-01 -6.9469386e-03 0.0000000e+00 
8.2049024e-01 3.2152149e-03 0.0000000e+00 
1.0781354e+00 1.0208872e-03 0.0000000e+00 
8.1321573e-01 1.4207960e-03 0.0000000e+00 
9.1283637e-01 8.8272402e-03 0.0000000e+00 
0.0000000e+00 0.0000000e+00 0.0000000e+00 
8.8874096e-01 -1.3394952e-05 0.0000000e+00 
8.1223875e-01 -2.6966392e-03 0.0000000e+00 
1.0743202e+00 -2.4531605e-03 0.0000000e+00 
8.8030958e-01 -3.7489659e-03 0.0000000e+00 
8.7748492e-01 -7.9254843e-03 0.0000000e+00 
8.8012892e-01 -8.7531414e-03 0.0000000e+00 
0.0000000e+00 0.0000000e+00 0.0000000e+00 
8.7370211e-01 -7.5537511e-03 0.0000000e+00 
8.1195128e-01 -6.8246233e-03 0.0000000e+00 
8.7339711e-01 -7.5407433e-03 0.0000000e+00 
8.8170183e-01 -9.2202295e-03 0.0000000e+00 
1.0659075e+00 -4.7577792e-03 0.0000000e+00 
8.6892605e-01 -1.1486417e-02 0.0000000e+00 
8.9186567e-01 -1.0285702e-02 0.0000000e+00 
0.0000000e+00 0.0000000e+00 0.0000000e+00 
8.7571281e-01 -1.3848736e-02 0.0000000e+00 
8.6634290e-01 -9.9812895e-03 0.0000000e+00 
8.6408865e-01 -1.4906174e-02 0.0000000e+00 
8.1347775e-01 -1.0119807e-02 0.0000000e+00 
8.8887936e-01 -1.2469147e-02 0.0000000e+00 
1.0530896e+00 -7.0065674e-03 0.0000000e+00 
8.7038523e-01 -1.7279813e-02 0.0000000e+00 
8.8175505e-01 -1.7192546e-02 0.0000000e+00 
8.9277428e-01 -1.3953687e-02 0.0000000e+00 
0.0000000e+00 0.0000000e+00 0.0000000e+00 
8.7652391e-01 -2.0251242e-02 0.0000000e+00 
8.5857576e-01 -1.2189179e-02 0.0000000e+00 
8.5857946e-01 -1.8173700e-02 0.0000000e+00 
8.8751459e-01 -1.8588582e-02 0.0000000e+00 
8.1703973e-01 -1.3388404e-02 0.0000000e+00 
8.6497873e-01 -2.0920733e-02 0.0000000e+00 
1.0359027e+00 -9.2334785e-03 0.0000000e+00 
8.7115395e-01 -2.3937011e-02 0.0000000e+00 
8.8440341e-01 -2.2528360e-02 0.0000000e+00 
8.5227513e-01 -2.1270869e-02 0.0000000e+00 
0.0000000e+00 0.0000000e+00 0.0000000e+00 
8.9526075e-01 -1.8303206e-02 0.0000000e+00 
8.5020179e-01 -1.4506688e-02 0.0000000e+00 
8.5931730e-01 -2.4539074e-02 0.0000000e+00 
8.7919492e-01 -2.6573462e-02 0.0000000e+00 
8.2241213e-01 -1.6688801e-02 0.0000000e+00 
8.9030045e-01 -2.3539500e-02 0.0000000e+00 
8.6656290e-01 -2.8576072e-02 0.0000000e+00 
1.0145611e+00 -1.1172698e-02 0.0000000e+00 
8.7455261e-01 -3.1110929e-02 0.0000000e+00 
8.8646555e-01 -2.8177002e-02 0.0000000e+00 
8.4514683e-01 -2.4469085e-02 0.0000000e+00 
8.5276192e-01 -2.8587904e-02 0.0000000e+00 
8.4136993e-01 -1.7205210e-02 0.0000000e+00 
8.9561331e-01 -2.4428094e-02 0.0000000e+00 
8.9891326e-01 -2.1424556e-02 0.0000000e+00 
0.0000000e+00 0.0000000e+00 0.0000000e+00 
8.8246471e-01 -3.2917198e-02 0.0000000e+00 
8.2886517e-01 -1.9777337e-02 0.0000000e+00 
8.5968095e-01 -3.3986658e-02 0.0000000e+00 
8.9215440e-01 -2.8988725e-02 0.0000000e+00 
8.6945283e-01 -3.6711857e-02 0.0000000e+00 
9.8980260e-01 -1.2351477e-02 0.0000000e+00 
8.8867074e-01 -3.3770412e-02 0.0000000e+00 
8.3724910e-01 -2.7893564e-02 0.0000000e+00 
8.7819558e-01 -3.8036935e-02 0.0000000e+00 
8.5215372e-01 -3.5766486e-02 0.0000000e+00 
8.4525913e-01 -3.2337423e-02 0.0000000e+00 
8.3197874e-01 -2.0414075e-02 0.0000000e+00 
8.9771777e-01 -2.9329678e-02 0.0000000e+00 
9.0253150e-01 -2.4564547e-02 0.0000000e+00 
0.0000000e+00 0.0000000e+00 0.0000000e+00 
8.3486140e-01 -2.2820219e-02 0.0000000e+00 
8.8490880e-01 -3.8949501e-02 0.0000000e+00 
8.9476377e-01 -3.4201629e-02 0.0000000e+00 
8.6405379e-01 -4.2469826e-02 0.0000000e+00 
8.5512048e-01 -4.1758087e-02 0.0000000e+00 
8.7368000e-01 -4.3481383e-02 0.0000000e+00 
8.4726357e-01 -4.0224284e-02 0.0000000e+00 
9.6157444e-01 -1.3200494e-02 0.0000000e+00 
9.0329814e-01 -2.9258462e-02 0.0000000e+00 
8.9144897e-01 -3.9454389e-02 0.0000000e+00 
8.3948243e-01 -3.7979040e-02 0.0000000e+00 
8.8087291e-01 -4.4470441e-02 0.0000000e+00 
8.2919592e-01 -3.3670530e-02 0.0000000e+00 
8.2220721e-01 -2.4376886e-02 0.0000000e+00 
9.0067708e-01 -3.4206238e-02 0.0000000e+00 
9.0685320e-01 -2.7385095e-02 0.0000000e+00 
0.0000000e+00 0.0000000e+00 0.0000000e+00 
8.6884290e-01 -4.9239654e-02 0.0000000e+00 
8.3969688e-01 -2.7530212e-02 0.0000000e+00 
8.8783526e-01 -4.5055095e-02 0.0000000e+00 
8.5768628e-01 -4.9338054e-02 0.0000000e+00 
8.9779109e-01 -3.9533027e-02 0.0000000e+00 
8.4962326e-01 -4.7658257e-02 0.0000000e+00 
8.7651825e-01 -5.0325990e-02 0.0000000e+00 
8.4144616e-01 -4.5966126e-02 0.0000000e+00 
9.0608835e-01 -3.2964263e-02 0.0000000e+00 
9.2943478e-01 -1.6251324e-02 0.0000000e+00 
8.9462584e-01 -4.5204561e-02 0.0000000e+00 
8.3449435e-01 -4.3793827e-02 0.0000000e+00 
8.8392603e-01 -5.1012874e-02 0.0000000e+00 
8.1339216e-01 -2.8742829e-02 0.0000000e+00 
8.2045656e-01 -3.8974665e-02 0.0000000e+00 
9.0400338e-01 -3.9198555e-02 0.0000000e+00 
9.1141492e-01 -2.9991627e-02 0.0000000e+00 
0.0000000e+00 0.0000000e+00 0.0000000e+00 
8.6086053e-01 -5.7213109e-02 0.0000000e+00 
8.5249978e-01 -5.6108005e-02 0.0000000e+00 
8.4295899e-01 -3.4379601e-02 0.0000000e+00 
8.9118040e-01 -5.1234968e-02 0.0000000e+00 
8.4390575e-01 -5.4164149e-02 0.0000000e+00 
9.0125424e-01 -4.4936478e-02 0.0000000e+00 
8.6937869e-01 -5.8116488e-02 0.0000000e+00 
8.7968403e-01 -5.7347801e-02 0.0000000e+00 
8.3527046e-01 -5.2230474e-02 0.0000000e+00 
9.0992785e-01 -3.7868865e-02 0.0000000e+00 
8.8596016e-01 -2.3392165e-02 0.0000000e+00 
8.0992186e-01 -3.8565408e-02 0.0000000e+00 
8.2814401e-01 -4.9172450e-02 0.0000000e+00 
8.9825571e-01 -5.1020447e-02 0.0000000e+00 
8.8744575e-01 -5.7630755e-02 0.0000000e+00 
8.1003094e-01 -3.4464959e-02 0.0000000e+00 
9.0771025e-01 -4.4261329e-02 0.0000000e+00 
8.5559428e-01 -6.4114265e-02 0.0000000e+00 
8.1842917e-01 -4.5728650e-02 0.0000000e+00 
9.1641647e-01 -3.2383263e-02 0.0000000e+00 
0.0000000e+00 0.0000000e+00 0.0000000e+00 
8.4655780e-01 -6.2890835e-02 0.0000000e+00 
8.6447519e-01 -6.5132566e-02 0.0000000e+00 
8.7297910e-01 -6.4492337e-02 0.0000000e+00 
8.3747971e-01 -6.0675997e-02 0.0000000e+00 
8.5122484e-01 -4.2136960e-02 0.0000000e+00 
8.9499474e-01 -5.7471454e-02 0.0000000e+00 
9.0515208e-01 -5.0392788e-02 0.0000000e+00 
9.1587967e-01 -3.7334651e-02 0.0000000e+00 
8.8196665e-01 -6.4620547e-02 0.0000000e+00 
8.2770419e-01 -5.8856171e-02 0.0000000e+00 
8.0244470e-01 -4.1001480e-02 0.0000000e+00 
8.5259020e-01 -3.3960048e-02 0.0000000e+00 
9.1398126e-01 -4.3189038e-02 0.0000000e+00 
8.9005601e-01 -6.3894868e-02 0.0000000e+00 
8.1952077e-01 -5.5826403e-02 0.0000000e+00 
9.0234500e-01 -5.6882866e-02 0.0000000e+00 
8.0656642e-01 -3.3456028e-02 0.0000000e+00 
8.6030698e-01 -7.2270550e-02 0.0000000e+00 
8.5008597e-01 -7.1528725e-02 0.0000000e+00 
9.1186792e-01 -4.9362179e-02 0.0000000e+00 
8.4058011e-01 -6.9728352e-02 0.0000000e+00 
8.6939472e-01 -7.2427109e-02 0.0000000e+00 
8.1169200e-01 -5.2723635e-02 0.0000000e+00 
9.2170143e-01 -3.4567859e-02 0.0000000e+00 
0.0000000e+00 0.0000000e+00 0.0000000e+00 
8.3099127e-01 -6.7589626e-02 0.0000000e+00 
8.7822694e-01 -7.2217904e-02 0.0000000e+00 
8.9927703e-01 -6.3752159e-02 0.0000000e+00 
8.5127950e-01 -3.4553792e-02 0.0000000e+00 
9.0949726e-01 -5.5888575e-02 0.0000000e+00 
9.2042786e-01 -4.0973302e-02 0.0000000e+00 
8.8678014e-01 -7.1428150e-02 0.0000000e+00 
8.2038456e-01 -6.5478824e-02 0.0000000e+00 
7.9306459e-01 -4.8551455e-02 0.0000000e+00 
9.1839707e-01 -4.7942907e-02 0.0000000e+00 
8.9501387e-01 -7.0309035e-02 0.0000000e+00 
8.1138891e-01 -6.2538445e-02 0.0000000e+00 
8.5514694e-01 -8.0153331e-02 0.0000000e+00 
9.0689600e-01 -6.2770516e-02 0.0000000e+00 
8.6484081e-01 -8.0486037e-02 0.0000000e+00 
8.4390956e-01 -7.9252958e-02 0.0000000e+00 
8.6375642e-01 -1.9597767e-02 0.0000000e+00 
8.3387852e-01 -7.7418432e-02 0.0000000e+00 
8.7410629e-01 -8.0227494e-02 0.0000000e+00 
9.1642660e-01 -5.4500159e-02 0.0000000e+00 
7.8113902e-01 -4.2382114e-02 0.0000000e+00 
8.0428511e-01 -5.8304310e-02 0.0000000e+00 
8.2435054e-01 -7.5654581e-02 0.0000000e+00 
9.2737150e-01 -3.6612447e-02 0.0000000e+00 
0.0000000e+00 0.0000000e+00 0.0000000e+00 
8.8338542e-01 -7.9430372e-02 0.0000000e+00 
9.0405446e-01 -7.0055485e-02 0.0000000e+00 
9.2478883e-01 -4.6156969e-02 0.0000000e+00 
9.1426170e-01 -6.1391819e-02 0.0000000e+00 
8.9199698e-01 -7.8204833e-02 0.0000000e+00 
8.1325597e-01 -7.3500708e-02 0.0000000e+00 
8.2092065e-01 -4.1971046e-02 0.0000000e+00 
7.8998041e-01 -5.3708680e-02 0.0000000e+00 
9.2318803e-01 -5.2767646e-02 0.0000000e+00 
8.4946162e-01 -8.8598363e-02 0.0000000e+00 
8.5982096e-01 -8.9029178e-02 0.0000000e+00 
9.0042365e-01 -7.6492831e-02 0.0000000e+00 
8.0217934e-01 -6.9672838e-02 0.0000000e+00 
8.3748955e-01 -8.7563105e-02 0.0000000e+00 
8.6987925e-01 -8.8857114e-02 0.0000000e+00 
6.4830148e-01 -2.4632614e-03 0.0000000e+00 
9.1189843e-01 -6.8655171e-02 0.0000000e+00 
8.2791865e-01 -8.6314142e-02 0.0000000e+00 
8.7960684e-01 -8.7935396e-02 0.0000000e+00 
9.2143136e-01 -5.9637681e-02 0.0000000e+00 
7.6808143e-01 -4.7386687e-02 0.0000000e+00 
8.6200792e-01 -4.5727514e-02 0.0000000e+00 
7.9407459e-01 -6.5779634e-02 0.0000000e+00 
8.1706619e-01 -8.3948337e-02 0.0000000e+00 
8.8895518e-01 -8.6691096e-02 0.0000000e+00 
9.3322462e-01 -3.8398802e-02 0.0000000e+00 
0.0000000e+00 0.0000000e+00 0.0000000e+00 
9.3179882e-01 -4.3381091e-02 0.0000000e+00 
9.0931779e-01 -7.6338604e-02 0.0000000e+00 
9.2969102e-01 -5.0682552e-02 0.0000000e+00 
8.0563676e-01 -8.0667309e-02 0.0000000e+00 
9.1949129e-01 -6.6880226e-02 0.0000000e+00 
8.9786869e-01 -8.4851004e-02 0.0000000e+00 
7.8412724e-01 -6.0450818e-02 0.0000000e+00 
7.8572077e-01 -3.9406825e-02 0.0000000e+00 
8.5442454e-01 -9.8129846e-02 0.0000000e+00 
8.6536825e-01 -9.7816259e-02 0.0000000e+00 
9.2831862e-01 -5.7543829e-02 0.0000000e+00 
8.4358346e-01 -9.8310143e-02 0.0000000e+00 
7.3099798e-01 -3.2714307e-02 0.0000000e+00 
8.7579453e-01 -9.7022526e-02 0.0000000e+00 
8.3230418e-01 -9.7198933e-02 0.0000000e+00 
9.0648901e-01 -8.2750104e-02 0.0000000e+00 
7.9368383e-01 -7.6921403e-02 0.0000000e+00 
9.1737956e-01 -7.4517742e-02 0.0000000e+00 
8.2023144e-01 -9.5246047e-02 0.0000000e+00 
8.8548118e-01 -9.5629856e-02 0.0000000e+00 
9.2678046e-01 -6.4745143e-02 0.0000000e+00 
7.6015025e-01 -5.5414196e-02 0.0000000e+00 
9.3608093e-01 -4.8308510e-02 0.0000000e+00 
8.0845302e-01 -9.2633799e-02 0.0000000e+00 
8.6228937e-01 -3.5364877e-02 0.0000000e+00 
8.9501256e-01 -9.3649089e-02 0.0000000e+00 
7.8347814e-01 -7.1424991e-02 0.0000000e+00 
9.3936944e-01 -4.0071003e-02 0.0000000e+00 
0.0000000e+00 0.0000000e+00 0.0000000e+00 
9.3505144e-01 -5.5155572e-02 0.0000000e+00 
9.1505980e-01 -8.2598396e-02 0.0000000e+00 
7.9671144e-01 -8.9552633e-02 0.0000000e+00 
9.0417832e-01 -9.1458358e-02 0.0000000e+00 
9.2508149e-01 -7.2325088e-02 0.0000000e+00 
8.6038464e-01 -1.0755166e-01 0.0000000e+00 
8.4888691e-01 -1.0800686e-01 0.0000000e+00 
7.7549344e-01 -6.4456075e-02 0.0000000e+00 
8.7149113e-01 -1.0668494e-01 0.0000000e+00 
8.3697289e-01 -1.0802714e-01 0.0000000e+00 
7.5491995e-01 -4.5772247e-02 0.0000000e+00 
9.1156590e-01 -8.8652633e-02 0.0000000e+00 
9.3388158e-01 -6.2304314e-02 0.0000000e+00 
8.2496566e-01 -1.0682680e-01 0.0000000e+00 
8.8210416e-01 -1.0527280e-01 0.0000000e+00 
7.8415436e-01 -8.4767573e-02 0.0000000e+00 
8.0238503e-01 -1.8849995e-02 0.0000000e+00 
8.1206846e-01 -1.0472713e-01 0.0000000e+00 
8.9215666e-01 -1.0311118e-01 0.0000000e+00 
9.4230461e-01 -4.5696791e-02 0.0000000e+00 
9.2323661e-01 -8.0300517e-02 0.0000000e+00 
9.3257827e-01 -6.9817029e-02 0.0000000e+00 
7.5535846e-01 -5.6968663e-02 0.0000000e+00 
9.4154924e-01 -5.2489001e-02 0.0000000e+00 
7.7166164e-01 -7.8937016e-02 0.0000000e+00 
9.0173191e-01 -1.0070761e-01 0.0000000e+00 
7.9934692e-01 -1.0209665e-01 0.0000000e+00 
8.2765234e-01 -4.1024726e-02 0.0000000e+00 
0.0000000e+00 0.0000000e+00 0.0000000e+00 
9.4573754e-01 -4.1491892e-02 0.0000000e+00 
9.4072735e-01 -5.9575569e-02 0.0000000e+00 
8.5518622e-01 -1.1804826e-01 0.0000000e+00 
7.8644168e-01 -9.8113917e-02 0.0000000e+00 
8.6711723e-01 -1.1703904e-01 0.0000000e+00 
9.1088831e-01 -9.7768709e-02 0.0000000e+00 
8.4318501e-01 -1.1866506e-01 0.0000000e+00 
9.1963249e-01 -9.0927482e-02 0.0000000e+00 
9.3115401e-01 -7.7711262e-02 0.0000000e+00 
8.3049244e-01 -1.1813132e-01 0.0000000e+00 
8.7816471e-01 -1.1543842e-01 0.0000000e+00 
7.6212531e-01 -7.2668642e-02 0.0000000e+00 
7.3041058e-01 -4.3022651e-02 0.0000000e+00 
8.1741887e-01 -1.1708320e-01 0.0000000e+00 
8.8897210e-01 -1.1314484e-01 0.0000000e+00 
8.1321388e-01 -1.3302220e-02 0.0000000e+00 
9.3979126e-01 -6.7004681e-02 0.0000000e+00 
9.4711143e-01 -4.8602805e-02 0.0000000e+00 
7.7330071e-01 -9.2880309e-02 0.0000000e+00 
8.0332607e-01 -1.1521877e-01 0.0000000e+00 
8.9938694e-01 -1.1058398e-01 0.0000000e+00 
9.2961788e-01 -8.6016968e-02 0.0000000e+00 
9.3876201e-01 -7.4794061e-02 0.0000000e+00 
9.4734538e-01 -5.6596216e-02 0.0000000e+00 
7.4672508e-01 -6.6295460e-02 0.0000000e+00 
9.0902126e-01 -1.0740137e-01 0.0000000e+00 
7.8962499e-01 -1.1227257e-01 0.0000000e+00 
7.5909829e-01 -8.6155377e-02 0.0000000e+00 
7.9656726e-01 -2.7674625e-02 0.0000000e+00 
8.4971237e-01 -1.2928317e-01 0.0000000e+00 
8.6233312e-01 -1.2811153e-01 0.0000000e+00 
9.5226669e-01 -4.2779867e-02 0.0000000e+00 
0.0000000e+00 0.0000000e+00 0.0000000e+00 
8.3644229e-01 -1.2980579e-01 0.0000000e+00 
8.7437445e-01 -1.2637798e-01 0.0000000e+00 
9.4672066e-01 -6.3929580e-02 0.0000000e+00 
7.7526414e-01 -1.0778164e-01 0.0000000e+00 
8.2324588e-01 -1.2942035e-01 0.0000000e+00 
9.1855556e-01 -1.0402726e-01 0.0000000e+00 
8.8588011e-01 -1.2384509e-01 0.0000000e+00 
9.3764931e-01 -8.2959637e-02 0.0000000e+00 
7.0536292e-01 -5.7854969e-02 0.0000000e+00 
8.0914658e-01 -1.2845056e-01 0.0000000e+00 
7.4844092e-01 -7.8898400e-02 0.0000000e+00 
8.9662987e-01 -1.2103572e-01 0.0000000e+00 
9.2783523e-01 -9.7541183e-02 0.0000000e+00 
9.4604450e-01 -7.1600124e-02 0.0000000e+00 
8.6586028e-01 -1.1168435e-02 0.0000000e+00 
7.6115143e-01 -1.0236740e-01 0.0000000e+00 
9.5347637e-01 -5.2735154e-02 0.0000000e+00 
9.0689725e-01 -1.1756600e-01 0.0000000e+00 
7.9385471e-01 -1.2641451e-01 0.0000000e+00 
7.4122000e-01 -6.8119928e-02 0.0000000e+00 
9.5344144e-01 -6.0645644e-02 0.0000000e+00 
7.7920872e-01 -1.2277734e-01 0.0000000e+00 
9.4532937e-01 -7.9638347e-02 0.0000000e+00 
9.3640733e-01 -9.3483634e-02 0.0000000e+00 
9.1698372e-01 -1.1404959e-01 0.0000000e+00 
8.5750747e-01 -1.4002110e-01 0.0000000e+00 
7.4497235e-01 -9.5758788e-02 0.0000000e+00 
7.1555972e-01 -4.9238298e-02 0.0000000e+00 
8.4384072e-01 -1.4138007e-01 0.0000000e+00 
8.6998320e-01 -1.3801672e-01 0.0000000e+00 
8.8234723e-01 -1.3528214e-01 0.0000000e+00 
8.2971460e-01 -1.4206797e-01 0.0000000e+00 
9.5887476e-01 -4.3750186e-02 0.0000000e+00 
0.0000000e+00 0.0000000e+00 0.0000000e+00 
8.1507695e-01 -1.4146093e-01 0.0000000e+00 
9.5307428e-01 -6.8178631e-02 0.0000000e+00 
8.9415359e-01 -1.3227613e-01 0.0000000e+00 
7.6348364e-01 -1.1838858e-01 0.0000000e+00 
6.0643351e-01 3.1318900e-03 0.0000000e+00 
9.2642289e-01 -1.0947049e-01 0.0000000e+00 
9.4454789e-01 -8.8070638e-02 0.0000000e+00 
7.0787412e-01 -5.6377981e-02 0.0000000e+00 
7.9989880e-01 -1.4024457e-01 0.0000000e+00 
9.0492553e-01 -1.2849328e-01 0.0000000e+00 
9.5984745e-01 -5.0028842e-02 0.0000000e+00 
7.2943217e-01 -8.8004954e-02 0.0000000e+00 
8.0712467e-01 -4.1326631e-02 0.0000000e+00 
9.5268154e-01 -7.6059043e-02 0.0000000e+00 
7.4790722e-01 -1.1196148e-01 0.0000000e+00 
7.8341687e-01 -1.3816935e-01 0.0000000e+00 
9.5978850e-01 -5.7160981e-02 0.0000000e+00 
9.3522519e-01 -1.0571034e-01 0.0000000e+00 
9.1563791e-01 -1.2464874e-01 0.0000000e+00 
8.5204285e-01 -1.5266812e-01 0.0000000e+00 
8.6575609e-01 -1.5064842e-01 0.0000000e+00 
7.2163808e-01 -7.7393658e-02 0.0000000e+00 
9.5972610e-01 -6.4552784e-02 0.0000000e+00 
8.3727568e-01 -1.5410785e-01 0.0000000e+00 
7.6746005e-01 -1.3460439e-01 0.0000000e+00 
8.7887460e-01 -1.4761212e-01 0.0000000e+00 
9.5225370e-01 -8.4292166e-02 0.0000000e+00 
9.2539513e-01 -1.2015923e-01 0.0000000e+00 
6.8645751e-01 -4.5363564e-02 0.0000000e+00 
7.3108870e-01 -1.0438018e-01 0.0000000e+00 
8.2193714e-01 -1.5497278e-01 0.0000000e+00 
8.9108795e-01 -1.4417535e-01 0.0000000e+00 
9.4358510e-01 -1.0111922e-01 0.0000000e+00 
8.0667931e-01 -1.5455483e-01 0.0000000e+00 
9.6574914e-01 -4.4658899e-02 0.0000000e+00 
0.0000000e+00 0.0000000e+00 0.0000000e+00 
9.0260553e-01 -1.3997716e-01 0.0000000e+00 
9.5963717e-01 -7.2279043e-02 0.0000000e+00 
7.5051963e-01 -1.2951325e-01 0.0000000e+00 
6.6865945e-01 -1.9141415e-02 0.0000000e+00 
9.3485188e-01 -1.1570532e-01 0.0000000e+00 
7.9033417e-01 -1.5346579e-01 0.0000000e+00 
9.6626908e-01 -5.2440763e-02 0.0000000e+00 
6.9630647e-01 -6.4493790e-02 0.0000000e+00 
9.1402978e-01 -1.3591281e-01 0.0000000e+00 
7.1301323e-01 -9.6250780e-02 0.0000000e+00 
7.7860910e-01 -3.6148030e-02 0.0000000e+00 
9.5154333e-01 -9.6539967e-02 0.0000000e+00 
9.5954829e-01 -8.0342829e-02 0.0000000e+00 
7.3329008e-01 -1.2311525e-01 0.0000000e+00 
7.7237272e-01 -1.5115459e-01 0.0000000e+00 
9.2427796e-01 -1.3095742e-01 0.0000000e+00 
9.6636611e-01 -6.0793743e-02 0.0000000e+00 
9.4358605e-01 -1.1081206e-01 0.0000000e+00 
8.6116230e-01 -1.6379124e-01 0.0000000e+00 
8.4629786e-01 -1.6641176e-01 0.0000000e+00 
8.7500012e-01 -1.6065502e-01 0.0000000e+00 
7.0291775e-01 -8.5517444e-02 0.0000000e+00 
8.3084685e-01 -1.6816589e-01 0.0000000e+00 
8.8846439e-01 -1.5708096e-01 0.0000000e+00 
9.6651864e-01 -6.8358697e-02 0.0000000e+00 
7.5512177e-01 -1.4722501e-01 0.0000000e+00 
9.3426859e-01 -1.2622665e-01 0.0000000e+00 
9.5947069e-01 -8.8798590e-02 0.0000000e+00 
8.1433976e-01 -1.6918135e-01 0.0000000e+00 
9.0070057e-01 -1.5242946e-01 0.0000000e+00 
6.6367924e-01 -5.5469520e-02 0.0000000e+00 
7.1617168e-01 -1.1586586e-01 0.0000000e+00 
9.5191830e-01 -1.0586344e-01 0.0000000e+00 
7.9735386e-01 -1.6869579e-01 0.0000000e+00 
9.1265476e-01 -1.4749333e-01 0.0000000e+00 
9.7249240e-01 -4.5301776e-02 0.0000000e+00 
0.0000000e+00 0.0000000e+00 0.0000000e+00 
7.0098078e-01 -1.0518565e-01 0.0000000e+00 
9.6670610e-01 -7.6229952e-02 0.0000000e+00 
7.6103276e-01 -2.0424809e-02 0.0000000e+00 
7.3665249e-01 -1.4205204e-01 0.0000000e+00 
9.4349903e-01 -1.2089910e-01 0.0000000e+00 
7.7973300e-01 -1.6765793e-01 0.0000000e+00 
9.2357814e-01 -1.4253294e-01 0.0000000e+00 
9.7242010e-01 -5.6835022e-02 0.0000000e+00 
6.8308187e-01 -7.3812857e-02 0.0000000e+00 
7.0463288e-01 -5.2294761e-02 0.0000000e+00 
9.5967889e-01 -1.0061820e-01 0.0000000e+00 
9.6694392e-01 -8.4447369e-02 0.0000000e+00 
7.1832937e-01 -1.3549347e-01 0.0000000e+00 
9.3386710e-01 -1.3690333e-01 0.0000000e+00 
7.6034939e-01 -1.6521186e-01 0.0000000e+00 
9.7279292e-01 -6.4284295e-02 0.0000000e+00 
8.5608411e-01 -1.7827615e-01 0.0000000e+00 
8.7143624e-01 -1.7493068e-01 0.0000000e+00 
8.8563561e-01 -1.7039225e-01 0.0000000e+00 
8.4056127e-01 -1.8138593e-01 0.0000000e+00 
9.5225090e-01 -1.1565088e-01 0.0000000e+00 
8.2404441e-01 -1.8333480e-01 0.0000000e+00 
8.9872670e-01 -1.6572733e-01 0.0000000e+00 
6.8338740e-01 -9.7682804e-02 0.0000000e+00 
8.0621499e-01 -1.8405180e-01 0.0000000e+00 
7.4183166e-01 -1.6129099e-01 0.0000000e+00 
9.7322303e-01 -7.1949348e-02 0.0000000e+00 
9.1148406e-01 -1.6029833e-01 0.0000000e+00 
5.1112747e-01 2.7078479e-03 0.0000000e+00 
6.5302479e-01 -6.2112533e-02 0.0000000e+00 
9.4372976e-01 -1.3162303e-01 0.0000000e+00 
9.6724129e-01 -9.3043774e-02 0.0000000e+00 
6.9949239e-01 -1.2720399e-01 0.0000000e+00 
7.8772146e-01 -1.8432753e-01 0.0000000e+00 