# vtk DataFile Version 4.0
vtk output
ASCII
DATASET UNSTRUCTURED_GRID
POINTS 5817 float
1.0000000e+01 0.0000000e+00 0.0000000e+00 
9.8999996e+00 0.0000000e+00 0.0000000e+00 
1.0000000e+01 1.0000000e-01 0.0000000e+00 
9.8583298e+00 8.8835500e-02 0.0000000e+00 
9.8000002e+00 0.0000000e+00 0.0000000e+00 
1.0000000e+01 2.0000000e-01 0.0000000e+00 
9.8999996e+00 1.7320500e-01 0.0000000e+00 
9.7500000e+00 8.6602502e-02 0.0000000e+00 
9.8000002e+00 1.7320500e-01 0.0000000e+00 
1.0000000e+01 3.0000001e-01 0.0000000e+00 
9.6999998e+00 0.0000000e+00 0.0000000e+00 
9.8583298e+00 2.6650599e-01 0.0000000e+00 
9.6999998e+00 1.7320500e-01 0.0000000e+00 
9.6499996e+00 8.6602502e-02 0.0000000e+00 
9.7500000e+00 2.5980800e-01 0.0000000e+00 
9.9033298e+00 3.4808499e-01 0.0000000e+00 
1.0000000e+01 4.0000001e-01 0.0000000e+00 
9.6000004e+00 0.0000000e+00 0.0000000e+00 
9.8000002e+00 3.4641001e-01 0.0000000e+00 
9.6000004e+00 1.7320500e-01 0.0000000e+00 
9.6499996e+00 2.5980800e-01 0.0000000e+00 
9.8583298e+00 4.2751101e-01 0.0000000e+00 
9.5500002e+00 8.6602502e-02 0.0000000e+00 
9.6999998e+00 3.4641001e-01 0.0000000e+00 
1.0000000e+01 5.0000000e-01 0.0000000e+00 
9.5000000e+00 0.0000000e+00 0.0000000e+00 
9.7500000e+00 4.3301299e-01 0.0000000e+00 
9.5500002e+00 2.5980800e-01 0.0000000e+00 
9.6000004e+00 3.4641001e-01 0.0000000e+00 
9.5000000e+00 1.7320500e-01 0.0000000e+00 
9.8999996e+00 5.1961499e-01 0.0000000e+00 
9.4499998e+00 8.6602502e-02 0.0000000e+00 
9.6499996e+00 4.3301299e-01 0.0000000e+00 
9.8000002e+00 5.1961499e-01 0.0000000e+00 
1.0000000e+01 6.0000002e-01 0.0000000e+00 
9.3999996e+00 0.0000000e+00 0.0000000e+00 
9.6999998e+00 5.1961499e-01 0.0000000e+00 
9.4499998e+00 2.5980800e-01 0.0000000e+00 
9.5000000e+00 3.4641001e-01 0.0000000e+00 
9.8893099e+00 6.1410201e-01 0.0000000e+00 
9.3999996e+00 1.7320500e-01 0.0000000e+00 
9.5500002e+00 4.3301299e-01 0.0000000e+00 
9.3500004e+00 8.6602502e-02 0.0000000e+00 
9.6000004e+00 5.1961499e-01 0.0000000e+00 
9.7873602e+00 6.3313198e-01 0.0000000e+00 
9.3999996e+00 3.4641001e-01 0.0000000e+00 
9.3000002e+00 0.0000000e+00 0.0000000e+00 
1.0000000e+01 6.9999999e-01 0.0000000e+00 
9.3500004e+00 2.5980800e-01 0.0000000e+00 
9.4499998e+00 4.3301299e-01 0.0000000e+00 
9.6772203e+00 6.2931901e-01 0.0000000e+00 
9.3000002e+00 1.7320500e-01 0.0000000e+00 
9.8485203e+00 7.1224803e-01 0.0000000e+00 
9.5041599e+00 5.3742099e-01 0.0000000e+00 
9.2500000e+00 8.6602502e-02 0.0000000e+00 
9.5762100e+00 6.3882500e-01 0.0000000e+00 
9.7494297e+00 7.2565800e-01 0.0000000e+00 
9.3000002e+00 3.4641001e-01 0.0000000e+00 
9.3420296e+00 4.3454701e-01 0.0000000e+00 
9.2500000e+00 2.5980800e-01 0.0000000e+00 
9.9096899e+00 7.9136300e-01 0.0000000e+00 
1.0000000e+01 8.0000001e-01 0.0000000e+00 
9.1999998e+00 0.0000000e+00 0.0000000e+00 
9.6503296e+00 7.3906797e-01 0.0000000e+00 
9.1999998e+00 1.7320500e-01 0.0000000e+00 
9.3813105e+00 5.4442602e-01 0.0000000e+00 
9.8105898e+00 8.0477297e-01 0.0000000e+00 
9.4674196e+00 6.5563202e-01 0.0000000e+00 
9.1499996e+00 8.6602502e-02 0.0000000e+00 
9.7114897e+00 8.1818300e-01 0.0000000e+00 
9.1999998e+00 3.4641001e-01 0.0000000e+00 
9.5512304e+00 7.5247800e-01 0.0000000e+00 
9.2865801e+00 5.0924700e-01 0.0000000e+00 
9.2342796e+00 4.2777699e-01 0.0000000e+00 
9.1499996e+00 2.5980800e-01 0.0000000e+00 
9.8717499e+00 8.8388801e-01 0.0000000e+00 
1.0000000e+01 8.9999998e-01 0.0000000e+00 
9.1000004e+00 0.0000000e+00 0.0000000e+00 
9.1000004e+00 1.7320500e-01 0.0000000e+00 
9.6124001e+00 8.3159399e-01 0.0000000e+00 
9.7726603e+00 8.9729899e-01 0.0000000e+00 
9.3619204e+00 6.7122602e-01 0.0000000e+00 
9.2737198e+00 5.9348202e-01 0.0000000e+00 
9.4521399e+00 7.6588798e-01 0.0000000e+00 
9.2042999e+00 5.2308202e-01 0.0000000e+00 
9.0500002e+00 8.6602502e-02 0.0000000e+00 
9.9329100e+00 9.6300399e-01 0.0000000e+00 
9.6735601e+00 9.1070902e-01 0.0000000e+00 
9.1368198e+00 4.4975999e-01 0.0000000e+00 
9.5132999e+00 8.4500402e-01 0.0000000e+00 
9.0923996e+00 3.6564499e-01 0.0000000e+00 
9.0500002e+00 2.5980800e-01 0.0000000e+00 
9.8338203e+00 9.7641402e-01 0.0000000e+00 
1.0000000e+01 1.0000000e+00 0.0000000e+00 
9.0000000e+00 0.0000000e+00 0.0000000e+00 
9.3530397e+00 7.7929902e-01 0.0000000e+00 
9.0000000e+00 1.7320500e-01 0.0000000e+00 
9.5744600e+00 9.2411900e-01 0.0000000e+00 
9.2438698e+00 6.8863100e-01 0.0000000e+00 
9.7347202e+00 9.8982400e-01 0.0000000e+00 
9.1771202e+00 6.1455202e-01 0.0000000e+00 
9.4141998e+00 8.5841399e-01 0.0000000e+00 
9.1068001e+00 5.4364800e-01 0.0000000e+00 
9.9044905e+00 1.0417700e+00 0.0000000e+00 
8.9499998e+00 8.6602502e-02 0.0000000e+00 
9.6356201e+00 1.0032300e+00 0.0000000e+00 
9.0417004e+00 4.7562101e-01 0.0000000e+00 
9.4753599e+00 9.3752903e-01 0.0000000e+00 
8.9499998e+00 2.5980800e-01 0.0000000e+00 
8.9784098e+00 3.7431899e-01 0.0000000e+00 
9.7958803e+00 1.0689400e+00 0.0000000e+00 
1.0000000e+01 1.1000000e+00 0.0000000e+00 
8.8999996e+00 0.0000000e+00 0.0000000e+00 
9.2132702e+00 7.8782201e-01 0.0000000e+00 
9.1461802e+00 7.1470100e-01 0.0000000e+00 
8.8999996e+00 1.7320500e-01 0.0000000e+00 
9.5365295e+00 1.0166399e+00 0.0000000e+00 
9.0804300e+00 6.3953602e-01 0.0000000e+00 
9.6967897e+00 1.0823500e+00 0.0000000e+00 
9.2791595e+00 8.6298501e-01 0.0000000e+00 
9.3762703e+00 9.5093900e-01 0.0000000e+00 
9.0110798e+00 5.7062602e-01 0.0000000e+00 
9.8643503e+00 1.1422800e+00 0.0000000e+00 
8.8500004e+00 8.6602502e-02 0.0000000e+00 
8.8924799e+00 3.3931199e-01 0.0000000e+00 
8.9442501e+00 4.9722099e-01 0.0000000e+00 
9.5976896e+00 1.0957600e+00 0.0000000e+00 
9.4374304e+00 1.0300500e+00 0.0000000e+00 
8.8500004e+00 2.5980800e-01 0.0000000e+00 
9.7579498e+00 1.1614600e+00 0.0000000e+00 
9.1158600e+00 8.0676198e-01 0.0000000e+00 
8.8780699e+00 4.2282000e-01 0.0000000e+00 
1.0000000e+01 1.2000000e+00 0.0000000e+00 
8.8000002e+00 0.0000000e+00 0.0000000e+00 
9.0481195e+00 7.3358703e-01 0.0000000e+00 
9.1810904e+00 8.8230300e-01 0.0000000e+00 
9.2557602e+00 9.4870597e-01 0.0000000e+00 
8.9842997e+00 6.5732199e-01 0.0000000e+00 
8.8000002e+00 1.7320500e-01 0.0000000e+00 
9.4985905e+00 1.1091700e+00 0.0000000e+00 
9.6588497e+00 1.1748700e+00 0.0000000e+00 
9.9182100e+00 1.2271700e+00 0.0000000e+00 
9.3251104e+00 1.0312500e+00 0.0000000e+00 
8.9135799e+00 5.8930397e-01 0.0000000e+00 
8.8084297e+00 3.5165700e-01 0.0000000e+00 
8.7500000e+00 8.6602502e-02 0.0000000e+00 
9.8191099e+00 1.2405800e+00 0.0000000e+00 
9.3931599e+00 1.1044700e+00 0.0000000e+00 
8.8464403e+00 5.1585698e-01 0.0000000e+00 
9.5597496e+00 1.1882800e+00 0.0000000e+00 
8.7500000e+00 2.5980800e-01 0.0000000e+00 
9.0928097e+00 9.0680802e-01 0.0000000e+00 
9.0184002e+00 8.2787198e-01 0.0000000e+00 
9.7200098e+00 1.2539901e+00 0.0000000e+00 
8.9546299e+00 7.5233299e-01 0.0000000e+00 
9.1608400e+00 9.7992098e-01 0.0000000e+00 
8.7830696e+00 4.4794399e-01 0.0000000e+00 
1.0000000e+01 1.3000000e+00 0.0000000e+00 
8.6999998e+00 0.0000000e+00 0.0000000e+00 
8.8883896e+00 6.7804497e-01 0.0000000e+00 
9.2278700e+00 1.0539600e+00 0.0000000e+00 
9.4606600e+00 1.2017000e+00 0.0000000e+00 
8.6918802e+00 1.9270100e-01 0.0000000e+00 
9.6209202e+00 1.2674000e+00 0.0000000e+00 
9.8934698e+00 1.3188500e+00 0.0000000e+00 
9.2957001e+00 1.1266800e+00 0.0000000e+00 
8.8160496e+00 6.0906202e-01 0.0000000e+00 
8.7121201e+00 3.7280300e-01 0.0000000e+00 
9.7811699e+00 1.3331100e+00 0.0000000e+00 
9.3628101e+00 1.2006400e+00 0.0000000e+00 
8.7522202e+00 5.4296398e-01 0.0000000e+00 
8.9969301e+00 9.2822403e-01 0.0000000e+00 
9.5218201e+00 1.2808100e+00 0.0000000e+00 
9.0639296e+00 1.0024101e+00 0.0000000e+00 
8.9203396e+00 8.4596699e-01 0.0000000e+00 
8.6267500e+00 1.0301200e-01 0.0000000e+00 
8.8568802e+00 7.7282602e-01 0.0000000e+00 
9.1301403e+00 1.0745500e+00 0.0000000e+00 
9.6820803e+00 1.3465199e+00 0.0000000e+00 
8.6461897e+00 3.0343899e-01 0.0000000e+00 
8.6854296e+00 4.6907300e-01 0.0000000e+00 
8.7924404e+00 7.0606899e-01 0.0000000e+00 
1.0000000e+01 1.4000000e+00 0.0000000e+00 
8.6000004e+00 0.0000000e+00 0.0000000e+00 
9.1987696e+00 1.1492000e+00 0.0000000e+00 
9.4227200e+00 1.2942200e+00 0.0000000e+00 
9.8423405e+00 1.4122200e+00 0.0000000e+00 
9.5829802e+00 1.3599300e+00 0.0000000e+00 
9.2651100e+00 1.2213700e+00 0.0000000e+00 
8.7203903e+00 6.3765901e-01 0.0000000e+00 
8.5783300e+00 2.3014100e-01 0.0000000e+00 
8.6154900e+00 3.9815599e-01 0.0000000e+00 
9.7432404e+00 1.4256300e+00 0.0000000e+00 
8.8996496e+00 9.4893199e-01 0.0000000e+00 
8.9663000e+00 1.0233800e+00 0.0000000e+00 
9.3332996e+00 1.2944700e+00 0.0000000e+00 
8.6545601e+00 5.6251901e-01 0.0000000e+00 
8.8232002e+00 8.6615598e-01 0.0000000e+00 
9.0328102e+00 1.0973001e+00 0.0000000e+00 
8.5388403e+00 7.1274497e-02 0.0000000e+00 
9.4838800e+00 1.3733400e+00 0.0000000e+00 
8.7642403e+00 8.0582702e-01 0.0000000e+00 
9.1010399e+00 1.1701699e+00 0.0000000e+00 
9.6441402e+00 1.4390399e+00 0.0000000e+00 
8.5491400e+00 3.2567400e-01 0.0000000e+00 
8.5171900e+00 1.6373500e-01 0.0000000e+00 
8.5903702e+00 4.9454200e-01 0.0000000e+00 
8.6965504e+00 7.3207003e-01 0.0000000e+00 
9.1679201e+00 1.2442800e+00 0.0000000e+00 
1.0000000e+01 1.5000000e+00 0.0000000e+00 
8.5000000e+00 0.0000000e+00 0.0000000e+00 
9.9187202e+00 1.5001400e+00 0.0000000e+00 
9.3847904e+00 1.3867500e+00 0.0000000e+00 
9.8044004e+00 1.5047500e+00 0.0000000e+00 
8.6287603e+00 6.5904301e-01 0.0000000e+00 
9.5450497e+00 1.4524500e+00 0.0000000e+00 
9.2358704e+00 1.3168499e+00 0.0000000e+00 
8.5254898e+00 4.2105001e-01 0.0000000e+00 
8.4849596e+00 2.5780100e-01 0.0000000e+00 
8.8687496e+00 1.0439600e+00 0.0000000e+00 
8.9374199e+00 1.1185300e+00 0.0000000e+00 
9.7053099e+00 1.5181600e+00 0.0000000e+00 
8.7996702e+00 9.7555703e-01 0.0000000e+00 
8.4502602e+00 8.9625701e-02 0.0000000e+00 
9.0043802e+00 1.1929899e+00 0.0000000e+00 
[...]
POINT_DATA 5817
FIELD FieldData 2
VELOCITY 3 5817  float
0.0000000e+00 0.0000000e+00 0.0000000e+00 
0.0000000e+00 0.0000000e+00 0.0000000e+00 
1.1865839e+00 1.4583319e-02 0.0000000e+00 
1.1508628e+00 1.1148770e-02 0.0000000e+00 
0.0000000e+00 0.0000000e+00 0.0000000e+00 
8.4841645e-01 -1.1600305e-02 0.0000000e+00 
8.5968363e-01 -4.5196856e-03 0.0000000e+00 
1.1567310e+00 1.3088989e-03 0.0000000e+00 
8.5419214e-01 -1.3200940e-04 0.0000000e+00 
9.4420463e-01 5.6889015e-03 0.0000000e+00 
0.0000000e+00 0.0000000e+00 0.0000000e+00 
9.3514562e-01 9.3440991e-04 0.0000000e+00 
8.5183311e-01 -6.0838013e-04 0.0000000e+00 
1.1594514e+00 -4.2133892e-04 0.0000000e+00 
9.3479472e-01 -1.0466715e-03 0.0000000e+00 
9.1687727e-01 -2.0853358e-03 0.0000000e+00 
9.1804600e-01 -2.1036181e-03 0.0000000e+00 
0.0000000e+00 0.0000000e+00 0.0000000e+00 
9.1546720e-01 -1.7804960e-03 0.0000000e+00 
8.4996688e-01 -1.8202487e-03 0.0000000e+00 
9.3420887e-01 -2.4906604e-03 0.0000000e+00 
9.2261219e-01 -1.7594390e-03 0.0000000e+00 
1.1584804e+00 -8.7246479e-04 0.0000000e+00 
9.1411722e-01 -2.9858584e-03 0.0000000e+00 
9.2379588e-01 -3.3539251e-04 0.0000000e+00 
0.0000000e+00 0.0000000e+00 0.0000000e+00 
9.2161429e-01 -3.4727706e-03 0.0000000e+00 
9.3292254e-01 -3.5739546e-03 0.0000000e+00 
9.1263139e-01 -4.2955512e-03 0.0000000e+00 
8.4837270e-01 -2.6564260e-03 0.0000000e+00 
9.2371255e-01 -1.5372493e-03 0.0000000e+00 
1.1565017e+00 -1.2468388e-03 0.0000000e+00 
9.2031354e-01 -4.8788907e-03 0.0000000e+00 
9.2195427e-01 -3.5811567e-03 0.0000000e+00 
9.2457896e-01 -8.5998408e-04 0.0000000e+00 
0.0000000e+00 0.0000000e+00 0.0000000e+00 
9.2091072e-01 -5.1607057e-03 0.0000000e+00 
9.3115789e-01 -4.6032737e-03 0.0000000e+00 
9.1097289e-01 -5.6003011e-03 0.0000000e+00 
9.2443103e-01 -2.9601534e-03 0.0000000e+00 
8.4661913e-01 -3.3898698e-03 0.0000000e+00 
9.1878933e-01 -6.4368639e-03 0.0000000e+00 
1.1538792e+00 -1.5877341e-03 0.0000000e+00 
9.1969240e-01 -6.8626916e-03 0.0000000e+00 
9.2406499e-01 -4.8773433e-03 0.0000000e+00 
9.0924472e-01 -6.9616456e-03 0.0000000e+00 
0.0000000e+00 0.0000000e+00 0.0000000e+00 
9.2652804e-01 -1.3992115e-03 0.0000000e+00 
9.2895865e-01 -5.6475890e-03 0.0000000e+00 
9.1708350e-01 -7.9815509e-03 0.0000000e+00 
9.2290103e-01 -6.9076964e-03 0.0000000e+00 
8.4462583e-01 -4.0880516e-03 0.0000000e+00 
9.2611754e-01 -4.0888134e-03 0.0000000e+00 
9.1832078e-01 -8.7893717e-03 0.0000000e+00 
1.1506257e+00 -1.9503604e-03 0.0000000e+00 
9.2181551e-01 -8.9915637e-03 0.0000000e+00 
9.2564702e-01 -6.4630173e-03 0.0000000e+00 
9.0718687e-01 -8.2974313e-03 0.0000000e+00 
9.1477203e-01 -9.4903912e-03 0.0000000e+00 
9.2623216e-01 -6.7446800e-03 0.0000000e+00 
9.2820621e-01 -3.2358989e-03 0.0000000e+00 
9.2842406e-01 -7.6275883e-04 0.0000000e+00 
0.0000000e+00 0.0000000e+00 0.0000000e+00 
9.2486739e-01 -8.7852189e-03 0.0000000e+00 
8.4247530e-01 -4.8487340e-03 0.0000000e+00 
9.1633379e-01 -1.1250510e-02 0.0000000e+00 
9.2789137e-01 -5.6425021e-03 0.0000000e+00 
9.2042875e-01 -1.1574746e-02 0.0000000e+00 
1.1465869e+00 -2.3894494e-03 0.0000000e+00 
9.2736644e-01 -8.1126010e-03 0.0000000e+00 
9.0521407e-01 -9.5065301e-03 0.0000000e+00 
9.2384893e-01 -1.1286688e-02 0.0000000e+00 
9.1359353e-01 -1.2364950e-02 0.0000000e+00 
9.1194987e-01 -1.1075903e-02 0.0000000e+00 
9.2261738e-01 -8.0432128e-03 0.0000000e+00 
9.3016320e-01 -4.6139937e-03 0.0000000e+00 
9.3093657e-01 -1.7614709e-03 0.0000000e+00 
0.0000000e+00 0.0000000e+00 0.0000000e+00 
8.4030557e-01 -5.8658514e-03 0.0000000e+00 
9.2662352e-01 -1.0728959e-02 0.0000000e+00 
9.2989624e-01 -7.2771702e-03 0.0000000e+00 
9.1872078e-01 -1.4042417e-02 0.0000000e+00 
9.1533309e-01 -1.4530662e-02 0.0000000e+00 
9.2267931e-01 -1.3979523e-02 0.0000000e+00 
9.1172296e-01 -1.4201757e-02 0.0000000e+00 
1.1413152e+00 -2.9775922e-03 0.0000000e+00 
9.3248922e-01 -3.5533139e-03 0.0000000e+00 
9.2938936e-01 -1.0009976e-02 0.0000000e+00 
9.0967083e-01 -1.3432931e-02 0.0000000e+00 
9.2570472e-01 -1.3459140e-02 0.0000000e+00 
9.0182298e-01 -1.1327495e-02 0.0000000e+00 
9.1825289e-01 -8.8444967e-03 0.0000000e+00 
9.3235010e-01 -6.1849589e-03 0.0000000e+00 
9.3376613e-01 -1.4292493e-03 0.0000000e+00 
0.0000000e+00 0.0000000e+00 0.0000000e+00 
9.2112404e-01 -1.6756963e-02 0.0000000e+00 
8.3884549e-01 -7.1866820e-03 0.0000000e+00 
9.2864728e-01 -1.2885344e-02 0.0000000e+00 
9.1684872e-01 -1.7345486e-02 0.0000000e+00 
9.3210584e-01 -9.0158880e-03 0.0000000e+00 
9.1326898e-01 -1.7188314e-02 0.0000000e+00 
9.2436224e-01 -1.6235359e-02 0.0000000e+00 
9.0956694e-01 -1.6766613e-02 0.0000000e+00 
9.3454123e-01 -4.5793010e-03 0.0000000e+00 
1.1339623e+00 -4.2542401e-03 0.0000000e+00 
9.3161231e-01 -1.1988405e-02 0.0000000e+00 
9.0753299e-01 -1.6036920e-02 0.0000000e+00 
9.2778003e-01 -1.5897550e-02 0.0000000e+00 
9.1435218e-01 -9.1104731e-03 0.0000000e+00 
8.9867491e-01 -1.3892774e-02 0.0000000e+00 
9.3483967e-01 -7.7733942e-03 0.0000000e+00 
9.3655235e-01 -2.1199174e-03 0.0000000e+00 
0.0000000e+00 0.0000000e+00 0.0000000e+00 
9.1844374e-01 -2.0451611e-02 0.0000000e+00 
9.1487199e-01 -2.0489113e-02 0.0000000e+00 
8.3845031e-01 -9.0942048e-03 0.0000000e+00 
9.3093097e-01 -1.5121945e-02 0.0000000e+00 
9.1114461e-01 -2.0126985e-02 0.0000000e+00 
9.3452930e-01 -1.0874765e-02 0.0000000e+00 
9.2232233e-01 -2.0233672e-02 0.0000000e+00 
9.2634743e-01 -1.9193603e-02 0.0000000e+00 
9.0723032e-01 -1.9599218e-02 0.0000000e+00 
9.3744558e-01 -5.9692538e-03 0.0000000e+00 
1.1209279e+00 -6.3179890e-03 0.0000000e+00 
8.9651889e-01 -1.4305587e-02 0.0000000e+00 
9.0428740e-01 -1.8382987e-02 0.0000000e+00 
9.3403977e-01 -1.4100646e-02 0.0000000e+00 
9.2995703e-01 -1.8305799e-02 0.0000000e+00 
9.0923756e-01 -1.0248712e-02 0.0000000e+00 
9.3749446e-01 -9.5071439e-03 0.0000000e+00 
9.1659755e-01 -2.3761049e-02 0.0000000e+00 
9.0013158e-01 -1.6772544e-02 0.0000000e+00 
9.4008464e-01 -1.2524148e-03 0.0000000e+00 
0.0000000e+00 0.0000000e+00 0.0000000e+00 
9.1271281e-01 -2.3706954e-02 0.0000000e+00 
9.2058790e-01 -2.3691101e-02 0.0000000e+00 
9.2427975e-01 -2.2813305e-02 0.0000000e+00 
9.0868282e-01 -2.3158375e-02 0.0000000e+00 
8.4885585e-01 -1.0780053e-02 0.0000000e+00 
9.3323755e-01 -1.7454151e-02 0.0000000e+00 
9.3719536e-01 -1.2859724e-02 0.0000000e+00 
9.4025832e-01 -4.4345739e-03 0.0000000e+00 
9.2825687e-01 -2.2110792e-02 0.0000000e+00 
9.0433711e-01 -2.2580940e-02 0.0000000e+00 
8.9301157e-01 -1.5362135e-02 0.0000000e+00 
1.0953691e+00 -2.0165291e-02 0.0000000e+00 
9.4037563e-01 -7.9097925e-03 0.0000000e+00 
9.3192321e-01 -2.0983407e-02 0.0000000e+00 
9.0027559e-01 -2.1490911e-02 0.0000000e+00 
9.3675876e-01 -1.6316675e-02 0.0000000e+00 
8.9999187e-01 -9.0498514e-03 0.0000000e+00 
9.1918564e-01 -2.7130825e-02 0.0000000e+00 
9.1459394e-01 -2.7266370e-02 0.0000000e+00 
9.4031996e-01 -1.1366851e-02 0.0000000e+00 
9.1036975e-01 -2.6989380e-02 0.0000000e+00 
9.2327809e-01 -2.6528450e-02 0.0000000e+00 
8.9657080e-01 -2.0130448e-02 0.0000000e+00 
9.4288194e-01 -1.9189824e-03 0.0000000e+00 
0.0000000e+00 0.0000000e+00 0.0000000e+00 
9.0603942e-01 -2.6455289e-02 0.0000000e+00 
9.2713755e-01 -2.5738381e-02 0.0000000e+00 
9.3600780e-01 -1.9971419e-02 0.0000000e+00 
8.4519547e-01 2.5464231e-04 0.0000000e+00 
9.4004160e-01 -1.4929515e-02 0.0000000e+00 
9.4351095e-01 -5.7565854e-03 0.0000000e+00 
9.3100303e-01 -2.4720425e-02 0.0000000e+00 
9.0138781e-01 -2.5758708e-02 0.0000000e+00 
8.8922757e-01 -1.8760523e-02 0.0000000e+00 
9.4347399e-01 -9.6656503e-03 0.0000000e+00 
9.3473792e-01 -2.3379244e-02 0.0000000e+00 
8.9696342e-01 -2.4717560e-02 0.0000000e+00 
9.1737193e-01 -3.0948110e-02 0.0000000e+00 
9.3962675e-01 -1.8605489e-02 0.0000000e+00 
9.2174017e-01 -3.0440273e-02 0.0000000e+00 
9.1219729e-01 -3.1027131e-02 0.0000000e+00 
1.0919249e+00 -1.0620697e-02 0.0000000e+00 
9.0776366e-01 -3.0707475e-02 0.0000000e+00 
9.2591846e-01 -2.9708052e-02 0.0000000e+00 
9.4335794e-01 -1.3331009e-02 0.0000000e+00 
8.9324981e-01 -1.9291554e-02 0.0000000e+00 
8.9292628e-01 -2.2910036e-02 0.0000000e+00 
9.0318781e-01 -3.0302880e-02 0.0000000e+00 
9.4650596e-01 -2.5020498e-03 0.0000000e+00 
0.0000000e+00 0.0000000e+00 0.0000000e+00 
9.3008995e-01 -2.8695542e-02 0.0000000e+00 
9.3894744e-01 -2.2503303e-02 0.0000000e+00 
9.4659996e-01 -7.6646265e-03 0.0000000e+00 
9.4309378e-01 -1.7089125e-02 0.0000000e+00 
9.3401498e-01 -2.7401455e-02 0.0000000e+00 
8.9832240e-01 -2.9656580e-02 0.0000000e+00 
8.3686054e-01 -1.4486400e-02 0.0000000e+00 
8.8679892e-01 -2.0383533e-02 0.0000000e+00 
9.4663930e-01 -1.1554398e-02 0.0000000e+00 
9.1526502e-01 -3.5035137e-02 0.0000000e+00 
9.1997731e-01 -3.4601737e-02 0.0000000e+00 
9.3786591e-01 -2.5875520e-02 0.0000000e+00 
8.9307845e-01 -2.8148688e-02 0.0000000e+00 
9.0985835e-01 -3.5142995e-02 0.0000000e+00 
9.2455649e-01 -3.3937994e-02 0.0000000e+00 
1.0512289e+00 1.5249627e-03 0.0000000e+00 
9.4272238e-01 -2.0970775e-02 0.0000000e+00 
9.0531713e-01 -3.5018370e-02 0.0000000e+00 
9.2897332e-01 -3.2880779e-02 0.0000000e+00 
9.4655597e-01 -1.5368504e-02 0.0000000e+00 
8.9206481e-01 -1.7500201e-02 0.0000000e+00 
8.5308594e-01 -1.5422134e-02 0.0000000e+00 
8.8840628e-01 -2.6654132e-02 0.0000000e+00 
9.0019929e-01 -3.4383379e-02 0.0000000e+00 
9.3322414e-01 -3.1618580e-02 0.0000000e+00 
9.5021778e-01 -1.4821185e-03 0.0000000e+00 
0.0000000e+00 0.0000000e+00 0.0000000e+00 
9.5005059e-01 -5.2726958e-03 0.0000000e+00 
9.4215196e-01 -2.5017675e-02 0.0000000e+00 
9.4988483e-01 -9.5802853e-03 0.0000000e+00 
8.9488816e-01 -3.3395465e-02 0.0000000e+00 
9.4633633e-01 -1.9302815e-02 0.0000000e+00 
9.3733257e-01 -3.0080784e-02 0.0000000e+00 
8.8152587e-01 -2.4400000e-02 0.0000000e+00 
8.8062108e-01 -1.0768326e-02 0.0000000e+00 
9.1800386e-01 -3.9096553e-02 0.0000000e+00 
9.2302340e-01 -3.8338240e-02 0.0000000e+00 
9.4996023e-01 -1.3486930e-02 0.0000000e+00 
9.1299385e-01 -3.9604820e-02 0.0000000e+00 
1.0814066e+00 -2.1382457e-02 0.0000000e+00 
9.2777246e-01 -3.7340827e-02 0.0000000e+00 
9.0785950e-01 -3.9753597e-02 0.0000000e+00 
9.4132197e-01 -2.8315488e-02 0.0000000e+00 
8.8931769e-01 -3.2111600e-02 0.0000000e+00 
9.4600350e-01 -2.3384018e-02 0.0000000e+00 
9.0231401e-01 -3.9406765e-02 0.0000000e+00 
9.3223727e-01 -3.6055870e-02 0.0000000e+00 
9.4988787e-01 -1.7470153e-02 0.0000000e+00 
8.7783754e-01 -2.2645405e-02 0.0000000e+00 
9.5314610e-01 -7.4717952e-03 0.0000000e+00 
8.9663452e-01 -3.8682755e-02 0.0000000e+00 
8.3418995e-01 -3.6633369e-03 0.0000000e+00 
9.3662620e-01 -3.4520585e-02 0.0000000e+00 
8.8410193e-01 -2.9956846e-02 0.0000000e+00 
9.5396793e-01 -2.6102762e-03 0.0000000e+00 
0.0000000e+00 0.0000000e+00 0.0000000e+00 
9.5336419e-01 -1.1470018e-02 0.0000000e+00 
9.4564158e-01 -2.7739689e-02 0.0000000e+00 
8.9110076e-01 -3.7741773e-02 0.0000000e+00 
9.4079065e-01 -3.2837909e-02 0.0000000e+00 
9.4970828e-01 -2.1563329e-02 0.0000000e+00 
9.2127311e-01 -4.3082248e-02 0.0000000e+00 
9.1607839e-01 -4.3956835e-02 0.0000000e+00 
8.7810045e-01 -2.7122252e-02 0.0000000e+00 
9.2635858e-01 -4.2078406e-02 0.0000000e+00 
9.1050112e-01 -4.4505686e-02 0.0000000e+00 
8.7909389e-01 -1.8782075e-02 0.0000000e+00 
9.4432753e-01 -3.0730089e-02 0.0000000e+00 
9.5345551e-01 -1.5480355e-02 0.0000000e+00 
9.0487349e-01 -4.4492695e-02 0.0000000e+00 
9.3122631e-01 -4.0799040e-02 0.0000000e+00 
8.8511866e-01 -3.6070943e-02 0.0000000e+00 
1.0954823e+00 -2.0522045e-02 0.0000000e+00 
8.9898980e-01 -4.4154022e-02 0.0000000e+00 
9.3584764e-01 -3.9193593e-02 0.0000000e+00 
9.5642984e-01 -5.5010747e-03 0.0000000e+00 
9.4929999e-01 -2.5691956e-02 0.0000000e+00 
9.5345354e-01 -1.9622898e-02 0.0000000e+00 
8.7106693e-01 -2.4079595e-02 0.0000000e+00 
9.5662302e-01 -9.3108080e-03 0.0000000e+00 
8.7897623e-01 -3.3945762e-02 0.0000000e+00 
9.4025397e-01 -3.7435852e-02 0.0000000e+00 
8.9287096e-01 -4.3536402e-02 0.0000000e+00 
8.1462997e-01 -1.9884877e-02 0.0000000e+00 
0.0000000e+00 0.0000000e+00 0.0000000e+00 
9.5816576e-01 -2.1391737e-03 0.0000000e+00 
9.5691323e-01 -1.3334173e-02 0.0000000e+00 
9.1942710e-01 -4.8193708e-02 0.0000000e+00 
8.8666981e-01 -4.2305280e-02 0.0000000e+00 
9.2484486e-01 -4.7134142e-02 0.0000000e+00 
9.4450885e-01 -3.5512246e-02 0.0000000e+00 
9.1391677e-01 -4.9062856e-02 0.0000000e+00 
9.4850367e-01 -3.1474315e-02 0.0000000e+00 
9.5339757e-01 -2.3898644e-02 0.0000000e+00 
9.0803581e-01 -4.9462818e-02 0.0000000e+00 
9.2997581e-01 -4.5781016e-02 0.0000000e+00 
8.7268341e-01 -3.1619631e-02 0.0000000e+00 
8.7603813e-01 -1.8821916e-02 0.0000000e+00 
9.0186894e-01 -4.9563121e-02 0.0000000e+00 
9.3494451e-01 -4.4148408e-02 0.0000000e+00 
1.0770258e+00 -2.4883557e-02 0.0000000e+00 
9.5706308e-01 -1.7479492e-02 0.0000000e+00 
9.5946467e-01 -6.6438587e-03 0.0000000e+00 
8.8036752e-01 -4.0534478e-02 0.0000000e+00 
8.9549226e-01 -4.9385209e-02 0.0000000e+00 
9.3970227e-01 -4.2305954e-02 0.0000000e+00 
9.5320666e-01 -2.8554777e-02 0.0000000e+00 
9.5712167e-01 -2.1732450e-02 0.0000000e+00 
9.6036917e-01 -1.1059018e-02 0.0000000e+00 
8.6369061e-01 -2.9051354e-02 0.0000000e+00 
9.4420928e-01 -4.0232316e-02 0.0000000e+00 
8.8885611e-01 -4.8715867e-02 0.0000000e+00 
8.7358958e-01 -3.8259733e-02 0.0000000e+00 
8.2420260e-01 -6.9611249e-03 0.0000000e+00 
9.1746503e-01 -5.3696685e-02 0.0000000e+00 
9.2319751e-01 -5.2511077e-02 0.0000000e+00 
9.6204728e-01 -2.9818236e-03 0.0000000e+00 
0.0000000e+00 0.0000000e+00 0.0000000e+00 
9.1139102e-01 -5.4541938e-02 0.0000000e+00 
9.2875314e-01 -5.1109478e-02 0.0000000e+00 
9.6062511e-01 -1.5233545e-02 0.0000000e+00 
8.8200980e-01 -4.7298837e-02 0.0000000e+00 
9.0518206e-01 -5.5019200e-02 0.0000000e+00 
9.4873798e-01 -3.7929166e-02 0.0000000e+00 
9.3400860e-01 -4.9363676e-02 0.0000000e+00 
9.5716304e-01 -2.6003378e-02 0.0000000e+00 
8.6487204e-01 -2.8129295e-02 0.0000000e+00 
8.9855599e-01 -5.5178903e-02 0.0000000e+00 
8.6742926e-01 -3.5876591e-02 0.0000000e+00 
9.3896747e-01 -4.7453605e-02 0.0000000e+00 
9.5284832e-01 -3.4335148e-02 0.0000000e+00 
9.6082884e-01 -1.9511370e-02 0.0000000e+00 
1.0196600e+00 -1.3302756e-02 0.0000000e+00 
8.7514812e-01 -4.5525763e-02 0.0000000e+00 
9.6356875e-01 -8.2327947e-03 0.0000000e+00 
9.4376719e-01 -4.5309812e-02 0.0000000e+00 
8.9169616e-01 -5.4959230e-02 0.0000000e+00 
8.5901618e-01 -3.1890348e-02 0.0000000e+00 
9.6415973e-01 -1.2861223e-02 0.0000000e+00 
8.8450706e-01 -5.4100502e-02 0.0000000e+00 
9.6091014e-01 -2.3891162e-02 0.0000000e+00 
9.5714331e-01 -3.1714067e-02 0.0000000e+00 
9.4847351e-01 -4.3029994e-02 0.0000000e+00 
9.2145503e-01 -5.8286011e-02 0.0000000e+00 
8.6780149e-01 -4.3271728e-02 0.0000000e+00 
8.1510651e-01 -2.3522997e-02 0.0000000e+00 
9.1529751e-01 -5.9536923e-02 0.0000000e+00 
9.2730623e-01 -5.6757681e-02 0.0000000e+00 
9.3293071e-01 -5.4922290e-02 0.0000000e+00 
9.0882915e-01 -6.0481694e-02 0.0000000e+00 
9.6675861e-01 -1.6131235e-03 0.0000000e+00 
0.0000000e+00 0.0000000e+00 0.0000000e+00 
9.0205401e-01 -6.0937583e-02 0.0000000e+00 
9.6446806e-01 -1.7151203e-02 0.0000000e+00 
9.3829972e-01 -5.2914139e-02 0.0000000e+00 
8.7710440e-01 -5.2861877e-02 0.0000000e+00 
1.0653020e+00 -1.8223975e-02 0.0000000e+00 
9.5290840e-01 -4.0351726e-02 0.0000000e+00 
9.6112543e-01 -2.8668690e-02 0.0000000e+00 
8.6050010e-01 -2.7556632e-02 0.0000000e+00 
8.9488667e-01 -6.1100606e-02 0.0000000e+00 
9.4335157e-01 -5.0635211e-02 0.0000000e+00 
9.6706927e-01 -5.9746802e-03 0.0000000e+00 
8.6053127e-01 -4.0562224e-02 0.0000000e+00 
8.2335967e-01 -3.8144205e-02 0.0000000e+00 
9.6469802e-01 -2.1504164e-02 0.0000000e+00 
8.6941963e-01 -5.0726756e-02 0.0000000e+00 
8.8748312e-01 -6.0955539e-02 0.0000000e+00 
9.6757394e-01 -1.0383760e-02 0.0000000e+00 
9.5709157e-01 -3.7911374e-02 0.0000000e+00 
9.4827408e-01 -4.8249137e-02 0.0000000e+00 
9.1952443e-01 -6.4369440e-02 0.0000000e+00 
9.2593229e-01 -6.2842540e-02 0.0000000e+00 
8.5193497e-01 -3.6921185e-02 0.0000000e+00 
9.6803987e-01 -1.4692546e-02 0.0000000e+00 
9.1289383e-01 -6.5770634e-02 0.0000000e+00 
8.7978083e-01 -6.0143448e-02 0.0000000e+00 
9.3179047e-01 -6.0850170e-02 0.0000000e+00 
9.6505630e-01 -2.5842926e-02 0.0000000e+00 
9.5288563e-01 -4.5668520e-02 0.0000000e+00 
8.4851080e-01 -1.8108036e-02 0.0000000e+00 
8.6157715e-01 -4.8181258e-02 0.0000000e+00 
9.0585983e-01 -6.6796258e-02 0.0000000e+00 
9.3741018e-01 -5.8681518e-02 0.0000000e+00 
9.6106476e-01 -3.5195798e-02 0.0000000e+00 
8.9873266e-01 -6.7366071e-02 0.0000000e+00 
9.7023517e-01 -2.4971708e-03 0.0000000e+00 
0.0000000e+00 0.0000000e+00 0.0000000e+00 
9.4280893e-01 -5.6245767e-02 0.0000000e+00 
9.6841884e-01 -1.9064309e-02 0.0000000e+00 
8.7167728e-01 -5.8703609e-02 0.0000000e+00 
1.0457268e+00 -2.2456376e-02 0.0000000e+00 
9.5739019e-01 -4.3047708e-02 0.0000000e+00 
8.9110690e-01 -6.7644209e-02 0.0000000e+00 
9.7123230e-01 -7.3204790e-03 0.0000000e+00 
8.4571731e-01 -3.3347771e-02 0.0000000e+00 
9.4795406e-01 -5.3797878e-02 0.0000000e+00 
8.5417002e-01 -4.5369606e-02 0.0000000e+00 
8.2245135e-01 -1.1277592e-02 0.0000000e+00 
9.6508604e-01 -3.2460023e-02 0.0000000e+00 
9.6873111e-01 -2.3560502e-02 0.0000000e+00 
8.6343342e-01 -5.6631207e-02 0.0000000e+00 
8.8303858e-01 -6.7456812e-02 0.0000000e+00 
9.5279610e-01 -5.1011916e-02 0.0000000e+00 
9.7161752e-01 -1.2137632e-02 0.0000000e+00 
9.6156156e-01 -4.0228631e-02 0.0000000e+00 
9.2433560e-01 -6.9182105e-02 0.0000000e+00 
9.1749066e-01 -7.0954643e-02 0.0000000e+00 
9.3062776e-01 -6.7056581e-02 0.0000000e+00 
8.4630424e-01 -4.0553443e-02 0.0000000e+00 
9.1053098e-01 -7.2498403e-02 0.0000000e+00 
9.3670166e-01 -6.4879797e-02 0.0000000e+00 
9.7203803e-01 -1.6521083e-02 0.0000000e+00 
8.7477940e-01 -6.6571347e-02 0.0000000e+00 
9.5748985e-01 -4.8305601e-02 0.0000000e+00 
9.6893668e-01 -2.8236620e-02 0.0000000e+00 
9.0305793e-01 -7.3696315e-02 0.0000000e+00 
9.4240838e-01 -6.2193543e-02 0.0000000e+00 
8.3855671e-01 -2.9335871e-02 0.0000000e+00 
8.5508591e-01 -5.3975966e-02 0.0000000e+00 
9.6568805e-01 -3.7371647e-02 0.0000000e+00 
8.9520562e-01 -7.4265078e-02 0.0000000e+00 
9.4760817e-01 -5.9390787e-02 0.0000000e+00 
9.7465605e-01 -3.0535890e-03 0.0000000e+00 
0.0000000e+00 0.0000000e+00 0.0000000e+00 
8.4812802e-01 -5.0114296e-02 0.0000000e+00 
9.7246021e-01 -2.0953702e-02 0.0000000e+00 
9.9425948e-01 -1.3934407e-02 0.0000000e+00 
8.6597949e-01 -6.5035574e-02 0.0000000e+00 
9.6189576e-01 -4.5298766e-02 0.0000000e+00 
8.8698655e-01 -7.4701056e-02 0.0000000e+00 
9.5276946e-01 -5.6700356e-02 0.0000000e+00 
9.7509050e-01 -9.4062416e-03 0.0000000e+00 
8.3856076e-01 -3.6175929e-02 0.0000000e+00 
7.9764485e-01 -2.1391293e-02 0.0000000e+00 
9.6954703e-01 -3.4350149e-02 0.0000000e+00 
9.7292894e-01 -2.5470732e-02 0.0000000e+00 
8.5639256e-01 -6.2953360e-02 0.0000000e+00 
9.5779079e-01 -5.3678896e-02 0.0000000e+00 
8.7822092e-01 -7.4510455e-02 0.0000000e+00 
9.7558761e-01 -1.3942443e-02 0.0000000e+00 
9.2266625e-01 -7.6048084e-02 0.0000000e+00 
9.2948562e-01 -7.3819786e-02 0.0000000e+00 
9.3591470e-01 -7.1185485e-02 0.0000000e+00 
9.1553092e-01 -7.8074135e-02 0.0000000e+00 
9.6615094e-01 -4.2351935e-02 0.0000000e+00 
9.0804768e-01 -7.9725809e-02 0.0000000e+00 
9.4188142e-01 -6.8602063e-02 0.0000000e+00 
8.3881718e-01 -4.6370279e-02 0.0000000e+00 
9.0001547e-01 -8.0898382e-02 0.0000000e+00 
8.6944318e-01 -7.3617429e-02 0.0000000e+00 
9.7608119e-01 -1.8329194e-02 0.0000000e+00 
9.4745964e-01 -6.5561339e-02 0.0000000e+00 
9.7219712e-01 -3.2488422e-03 0.0000000e+00 
8.3583784e-01 -3.0885607e-02 0.0000000e+00 
9.6240550e-01 -5.0718814e-02 0.0000000e+00 
9.7330433e-01 -3.0231634e-02 0.0000000e+00 
8.4771097e-01 -6.0598187e-02 0.0000000e+00 
8.9152801e-01 -8.1824630e-02 0.0000000e+00 