# vtk DataFile Version 4.0
vtk output
ASCII
DATASET UNSTRUCTURED_GRID
POINTS 5817 float
1.0000000e+01 0.0000000e+00 0.0000000e+00 
9.8999996e+00 0.0000000e+00 0.0000000e+00 
1.0000000e+01 1.0000000e-01 0.0000000e+00 
9.8583298e+00 8.8835500e-02 0.0000000e+00 
9.8000002e+00 0.0000000e+00 0.0000000e+00 
1.0000000e+01 2.0000000e-01 0.0000000e+00 
9.8999996e+00 1.7320500e-01 0.0000000e+00 
9.7500000e+00 8.6602502e-02 0.0000000e+00 
9.8000002e+00 1.7320500e-01 0.0000000e+00 
1.0000000e+01 3.0000001e-01 0.0000000e+00 
9.6999998e+00 0.0000000e+00 0.0000000e+00 
9.8583298e+00 2.6650599e-01 0.0000000e+00 
9.6999998e+00 1.7320500e-01 0.0000000e+00 
9.6499996e+00 8.6602502e-02 0.0000000e+00 
9.7500000e+00 2.5980800e-01 0.0000000e+00 
9.9033298e+00 3.4808499e-01 0.0000000e+00 
1.0000000e+01 4.0000001e-01 0.0000000e+00 
9.6000004e+00 0.0000000e+00 0.0000000e+00 
9.8000002e+00 3.4641001e-01 0.0000000e+00 
9.6000004e+00 1.7320500e-01 0.0000000e+00 
9.6499996e+00 2.5980800e-01 0.0000000e+00 
9.8583298e+00 4.2751101e-01 0.0000000e+00 
9.5500002e+00 8.6602502e-02 0.0000000e+00 
9.6999998e+00 3.4641001e-01 0.0000000e+00 
1.0000000e+01 5.0000000e-01 0.0000000e+00 
9.5000000e+00 0.0000000e+00 0.0000000e+00 
9.7500000e+00 4.3301299e-01 0.0000000e+00 
9.5500002e+00 2.5980800e-01 0.0000000e+00 
9.6000004e+00 3.4641001e-01 0.0000000e+00 
9.5000000e+00 1.7320500e-01 0.0000000e+00 
9.8999996e+00 5.1961499e-01 0.0000000e+00 
9.4499998e+00 8.6602502e-02 0.0000000e+00 
9.6499996e+00 4.3301299e-01 0.0000000e+00 
9.8000002e+00 5.1961499e-01 0.0000000e+00 
1.0000000e+01 6.0000002e-01 0.0000000e+00 
9.3999996e+00 0.0000000e+00 0.0000000e+00 
9.6999998e+00 5.1961499e-01 0.0000000e+00 
9.4499998e+00 2.5980800e-01 0.0000000e+00 
9.5000000e+00 3.4641001e-01 0.0000000e+00 
9.8893099e+00 6.1410201e-01 0.0000000e+00 
9.3999996e+00 1.7320500e-01 0.0000000e+00 
9.5500002e+00 4.3301299e-01 0.0000000e+00 
9.3500004e+00 8.6602502e-02 0.0000000e+00 
9.6000004e+00 5.1961499e-01 0.0000000e+00 
9.7873602e+00 6.3313198e-01 0.0000000e+00 
9.3999996e+00 3.4641001e-01 0.0000000e+00 
9.3000002e+00 0.0000000e+00 0.0000000e+00 
1.0000000e+01 6.9999999e-01 0.0000000e+00 
9.3500004e+00 2.5980800e-01 0.0000000e+00 
9.4499998e+00 4.3301299e-01 0.0000000e+00 
9.6772203e+00 6.2931901e-01 0.0000000e+00 
9.3000002e+00 1.7320500e-01 0.0000000e+00 
9.8485203e+00 7.1224803e-01 0.0000000e+00 
9.5041599e+00 5.3742099e-01 0.0000000e+00 
9.2500000e+00 8.6602502e-02 0.0000000e+00 
9.5762100e+00 6.3882500e-01 0.0000000e+00 
9.7494297e+00 7.2565800e-01 0.0000000e+00 
9.3000002e+00 3.4641001e-01 0.0000000e+00 
9.3420296e+00 4.3454701e-01 0.0000000e+00 
9.2500000e+00 2.5980800e-01 0.0000000e+00 
9.9096899e+00 7.9136300e-01 0.0000000e+00 
1.0000000e+01 8.0000001e-01 0.0000000e+00 
9.1999998e+00 0.0000000e+00 0.0000000e+00 
9.6503296e+00 7.3906797e-01 0.0000000e+00 
9.1999998e+00 1.7320500e-01 0.0000000e+00 
9.3813105e+00 5.4442602e-01 0.0000000e+00 
9.8105898e+00 8.0477297e-01 0.0000000e+00 
9.4674196e+00 6.5563202e-01 0.0000000e+00 
9.1499996e+00 8.6602502e-02 0.0000000e+00 
9.7114897e+00 8.1818300e-01 0.0000000e+00 
9.1999998e+00 3.4641001e-01 0.0000000e+00 
9.5512304e+00 7.5247800e-01 0.0000000e+00 
9.2865801e+00 5.0924700e-01 0.0000000e+00 
9.2342796e+00 4.2777699e-01 0.0000000e+00 
9.1499996e+00 2.5980800e-01 0.0000000e+00 
9.8717499e+00 8.8388801e-01 0.0000000e+00 
1.0000000e+01 8.9999998e-01 0.0000000e+00 
9.1000004e+00 0.0000000e+00 0.0000000e+00 
9.1000004e+00 1.7320500e-01 0.0000000e+00 
9.6124001e+00 8.3159399e-01 0.0000000e+00 
9.7726603e+00 8.9729899e-01 0.0000000e+00 
9.3619204e+00 6.7122602e-01 0.0000000e+00 
9.2737198e+00 5.9348202e-01 0.0000000e+00 
9.4521399e+00 7.6588798e-01 0.0000000e+00 
9.2042999e+00 5.2308202e-01 0.0000000e+00 
9.0500002e+00 8.6602502e-02 0.0000000e+00 
9.9329100e+00 9.6300399e-01 0.0000000e+00 
9.6735601e+00 9.1070902e-01 0.0000000e+00 
9.1368198e+00 4.4975999e-01 0.0000000e+00 
9.5132999e+00 8.4500402e-01 0.0000000e+00 
9.0923996e+00 3.6564499e-01 0.0000000e+00 
9.0500002e+00 2.5980800e-01 0.0000000e+00 
9.8338203e+00 9.7641402e-01 0.0000000e+00 
1.0000000e+01 1.0000000e+00 0.0000000e+00 
9.0000000e+00 0.0000000e+00 0.0000000e+00 
9.3530397e+00 7.7929902e-01 0.0000000e+00 
9.0000000e+00 1.7320500e-01 0.0000000e+00 
9.5744600e+00 9.2411900e-01 0.0000000e+00 
9.2438698e+00 6.8863100e-01 0.0000000e+00 
9.7347202e+00 9.8982400e-01 0.0000000e+00 
9.1771202e+00 6.1455202e-01 0.0000000e+00 
9.4141998e+00 8.5841399e-01 0.0000000e+00 
9.1068001e+00 5.4364800e-01 0.0000000e+00 
9.9044905e+00 1.0417700e+00 0.0000000e+00 
8.9499998e+00 8.6602502e-02 0.0000000e+00 
9.6356201e+00 1.0032300e+00 0.0000000e+00 
9.0417004e+00 4.7562101e-01 0.0000000e+00 
9.4753599e+00 9.3752903e-01 0.0000000e+00 
8.9499998e+00 2.5980800e-01 0.0000000e+00 
8.9784098e+00 3.7431899e-01 0.0000000e+00 
9.7958803e+00 1.0689400e+00 0.0000000e+00 
1.0000000e+01 1.1000000e+00 0.0000000e+00 
8.8999996e+00 0.0000000e+00 0.0000000e+00 
9.2132702e+00 7.8782201e-01 0.0000000e+00 
9.1461802e+00 7.1470100e-01 0.0000000e+00 
8.8999996e+00 1.7320500e-01 0.0000000e+00 
9.5365295e+00 1.0166399e+00 0.0000000e+00 
9.0804300e+00 6.3953602e-01 0.0000000e+00 
9.6967897e+00 1.0823500e+00 0.0000000e+00 
9.2791595e+00 8.6298501e-01 0.0000000e+00 
9.3762703e+00 9.5093900e-01 0.0000000e+00 
9.0110798e+00 5.7062602e-01 0.0000000e+00 
9.8643503e+00 1.1422800e+00 0.0000000e+00 
8.8500004e+00 8.6602502e-02 0.0000000e+00 
8.8924799e+00 3.3931199e-01 0.0000000e+00 
8.9442501e+00 4.9722099e-01 0.0000000e+00 
9.5976896e+00 1.0957600e+00 0.0000000e+00 
9.4374304e+00 1.0300500e+00 0.0000000e+00 
8.8500004e+00 2.5980800e-01 0.0000000e+00 
9.7579498e+00 1.1614600e+00 0.0000000e+00 
9.1158600e+00 8.0676198e-01 0.0000000e+00 
8.8780699e+00 4.2282000e-01 0.0000000e+00 
1.0000000e+01 1.2000000e+00 0.0000000e+00 
8.8000002e+00 0.0000000e+00 0.0000000e+00 
9.0481195e+00 7.3358703e-01 0.0000000e+00 
9.1810904e+00 8.8230300e-01 0.0000000e+00 
9.2557602e+00 9.4870597e-01 0.0000000e+00 
8.9842997e+00 6.5732199e-01 0.0000000e+00 
8.8000002e+00 1.7320500e-01 0.0000000e+00 
9.4985905e+00 1.1091700e+00 0.0000000e+00 
9.6588497e+00 1.1748700e+00 0.0000000e+00 
9.9182100e+00 1.2271700e+00 0.0000000e+00 
9.3251104e+00 1.0312500e+00 0.0000000e+00 
8.9135799e+00 5.8930397e-01 0.0000000e+00 
8.8084297e+00 3.5165700e-01 0.0000000e+00 
8.7500000e+00 8.6602502e-02 0.0000000e+00 
9.8191099e+00 1.2405800e+00 0.0000000e+00 
9.3931599e+00 1.1044700e+00 0.0000000e+00 
8.8464403e+00 5.1585698e-01 0.0000000e+00 
9.5597496e+00 1.1882800e+00 0.0000000e+00 
8.7500000e+00 2.5980800e-01 0.0000000e+00 
9.0928097e+00 9.0680802e-01 0.0000000e+00 
9.0184002e+00 8.2787198e-01 0.0000000e+00 
9.7200098e+00 1.2539901e+00 0.0000000e+00 
8.9546299e+00 7.5233299e-01 0.0000000e+00 
9.1608400e+00 9.7992098e-01 0.0000000e+00 
8.7830696e+00 4.4794399e-01 0.0000000e+00 
1.0000000e+01 1.3000000e+00 0.0000000e+00 
8.6999998e+00 0.0000000e+00 0.0000000e+00 
8.8883896e+00 6.7804497e-01 0.0000000e+00 
9.2278700e+00 1.0539600e+00 0.0000000e+00 
9.4606600e+00 1.2017000e+00 0.0000000e+00 
8.6918802e+00 1.9270100e-01 0.0000000e+00 
9.6209202e+00 1.2674000e+00 0.0000000e+00 
9.8934698e+00 1.3188500e+00 0.0000000e+00 
9.2957001e+00 1.1266800e+00 0.0000000e+00 
8.8160496e+00 6.0906202e-01 0.0000000e+00 
8.7121201e+00 3.7280300e-01 0.0000000e+00 
9.7811699e+00 1.3331100e+00 0.0000000e+00 
9.3628101e+00 1.2006400e+00 0.0000000e+00 
8.7522202e+00 5.4296398e-01 0.0000000e+00 
8.9969301e+00 9.2822403e-01 0.0000000e+00 
9.5218201e+00 1.2808100e+00 0.0000000e+00 
9.0639296e+00 1.0024101e+00 0.0000000e+00 
8.9203396e+00 8.4596699e-01 0.0000000e+00 
8.6267500e+00 1.0301200e-01 0.0000000e+00 
8.8568802e+00 7.7282602e-01 0.0000000e+00 
9.1301403e+00 1.0745500e+00 0.0000000e+00 
9.6820803e+00 1.3465199e+00 0.0000000e+00 
8.6461897e+00 3.0343899e-01 0.0000000e+00 
8.6854296e+00 4.6907300e-01 0.0000000e+00 
8.7924404e+00 7.0606899e-01 0.0000000e+00 
1.0000000e+01 1.4000000e+00 0.0000000e+00 
8.6000004e+00 0.0000000e+00 0.0000000e+00 
9.1987696e+00 1.1492000e+00 0.0000000e+00 
9.4227200e+00 1.2942200e+00 0.0000000e+00 
9.8423405e+00 1.4122200e+00 0.0000000e+00 
9.5829802e+00 1.3599300e+00 0.0000000e+00 
9.2651100e+00 1.2213700e+00 0.0000000e+00 
8.7203903e+00 6.3765901e-01 0.0000000e+00 
8.5783300e+00 2.3014100e-01 0.0000000e+00 
8.6154900e+00 3.9815599e-01 0.0000000e+00 
9.7432404e+00 1.4256300e+00 0.0000000e+00 
8.8996496e+00 9.4893199e-01 0.0000000e+00 
8.9663000e+00 1.0233800e+00 0.0000000e+00 
9.3332996e+00 1.2944700e+00 0.0000000e+00 
8.6545601e+00 5.6251901e-01 0.0000000e+00 
8.8232002e+00 8.6615598e-01 0.0000000e+00 
9.0328102e+00 1.0973001e+00 0.0000000e+00 
8.5388403e+00 7.1274497e-02 0.0000000e+00 
9.4838800e+00 1.3733400e+00 0.0000000e+00 
8.7642403e+00 8.0582702e-01 0.0000000e+00 
9.1010399e+00 1.1701699e+00 0.0000000e+00 
9.6441402e+00 1.4390399e+00 0.0000000e+00 
8.5491400e+00 3.2567400e-01 0.0000000e+00 
8.5171900e+00 1.6373500e-01 0.0000000e+00 
8.5903702e+00 4.9454200e-01 0.0000000e+00 
8.6965504e+00 7.3207003e-01 0.0000000e+00 
9.1679201e+00 1.2442800e+00 0.0000000e+00 
1.0000000e+01 1.5000000e+00 0.0000000e+00 
8.5000000e+00 0.0000000e+00 0.0000000e+00 
9.9187202e+00 1.5001400e+00 0.0000000e+00 
9.3847904e+00 1.3867500e+00 0.0000000e+00 
9.8044004e+00 1.5047500e+00 0.0000000e+00 
8.6287603e+00 6.5904301e-01 0.0000000e+00 
9.5450497e+00 1.4524500e+00 0.0000000e+00 
9.2358704e+00 1.3168499e+00 0.0000000e+00 
8.5254898e+00 4.2105001e-01 0.0000000e+00 
8.4849596e+00 2.5780100e-01 0.0000000e+00 
8.8687496e+00 1.0439600e+00 0.0000000e+00 
8.9374199e+00 1.1185300e+00 0.0000000e+00 
9.7053099e+00 1.5181600e+00 0.0000000e+00 
8.7996702e+00 9.7555703e-01 0.0000000e+00 
8.4502602e+00 8.9625701e-02 0.0000000e+00 
9.0043802e+00 1.1929899e+00 0.0000000e+00 
[...]
POINT_DATA 5817
FIELD FieldData 2
VELOCITY 3 5817  float
0.0000000e+00 0.0000000e+00 0.0000000e+00 
0.0000000e+00 0.0000000e+00 0.0000000e+00 
1.1001136e+00 3.5908487e-02 0.0000000e+00 
1.0730239e+00 1.7469872e-02 0.0000000e+00 
0.0000000e+00 0.0000000e+00 0.0000000e+00 
8.0243224e-01 -7.5130062e-03 0.0000000e+00 
8.1509441e-01 2.4623298e-03 0.0000000e+00 
1.0650051e+00 1.9426421e-04 0.0000000e+00 
8.0850029e-01 3.6881262e-04 0.0000000e+00 
9.0489137e-01 7.3471102e-03 0.0000000e+00 
0.0000000e+00 0.0000000e+00 0.0000000e+00 
8.7988138e-01 -1.1559569e-03 0.0000000e+00 
8.0829078e-01 -3.9837267e-03 0.0000000e+00 
1.0594375e+00 -3.3679856e-03 0.0000000e+00 
8.7057745e-01 -4.7682161e-03 0.0000000e+00 
8.7098891e-01 -9.4728731e-03 0.0000000e+00 
8.7400818e-01 -1.0235997e-02 0.0000000e+00 
0.0000000e+00 0.0000000e+00 0.0000000e+00 
8.6658937e-01 -9.3228063e-03 0.0000000e+00 
8.0879933e-01 -8.3374353e-03 0.0000000e+00 
8.6295992e-01 -8.6170426e-03 0.0000000e+00 
8.7448174e-01 -1.1299929e-02 0.0000000e+00 
1.0490402e+00 -5.7765297e-03 0.0000000e+00 
8.6103725e-01 -1.3343452e-02 0.0000000e+00 
8.8533616e-01 -1.2362344e-02 0.0000000e+00 
0.0000000e+00 0.0000000e+00 0.0000000e+00 
8.6802810e-01 -1.6146831e-02 0.0000000e+00 
8.5538000e-01 -1.1254141e-02 0.0000000e+00 
8.5530674e-01 -1.6844392e-02 0.0000000e+00 
8.1102967e-01 -1.1870366e-02 0.0000000e+00 
8.8188124e-01 -1.4911819e-02 0.0000000e+00 
1.0341175e+00 -8.0361953e-03 0.0000000e+00 
8.6224103e-01 -1.9764844e-02 0.0000000e+00 
8.7442005e-01 -1.9755986e-02 0.0000000e+00 
8.8662052e-01 -1.6506348e-02 0.0000000e+00 
0.0000000e+00 0.0000000e+00 0.0000000e+00 
8.6870742e-01 -2.3041464e-02 0.0000000e+00 
8.4727734e-01 -1.3805161e-02 0.0000000e+00 
8.4884268e-01 -2.0250970e-02 0.0000000e+00 
8.8096803e-01 -2.1418983e-02 0.0000000e+00 
8.1492847e-01 -1.5260453e-02 0.0000000e+00 
8.5629874e-01 -2.3600195e-02 0.0000000e+00 
1.0149716e+00 -1.0055367e-02 0.0000000e+00 
8.6280817e-01 -2.6959119e-02 0.0000000e+00 
8.7736768e-01 -2.5711048e-02 0.0000000e+00 
8.4162652e-01 -2.3601221e-02 0.0000000e+00 
0.0000000e+00 0.0000000e+00 0.0000000e+00 
8.8935512e-01 -2.1250585e-02 0.0000000e+00 
8.3864272e-01 -1.6557328e-02 0.0000000e+00 
8.5001230e-01 -2.7446825e-02 0.0000000e+00 
8.7156683e-01 -3.0009095e-02 0.0000000e+00 
8.1992871e-01 -1.8458376e-02 0.0000000e+00 
8.8372511e-01 -2.6947632e-02 0.0000000e+00 
8.5770142e-01 -3.1956285e-02 0.0000000e+00 
9.9211454e-01 -1.1559981e-02 0.0000000e+00 
8.6638927e-01 -3.4877859e-02 0.0000000e+00 
8.7946010e-01 -3.1913348e-02 0.0000000e+00 
8.3368564e-01 -2.7144503e-02 0.0000000e+00 
8.4274220e-01 -3.1802136e-02 0.0000000e+00 
8.2946670e-01 -1.9680435e-02 0.0000000e+00 
8.8953257e-01 -2.8029831e-02 0.0000000e+00 
8.9324105e-01 -2.4816988e-02 0.0000000e+00 
0.0000000e+00 0.0000000e+00 0.0000000e+00 
8.7499577e-01 -3.7008494e-02 0.0000000e+00 
8.2505435e-01 -2.1538923e-02 0.0000000e+00 
8.5009789e-01 -3.7772294e-02 0.0000000e+00 
8.8566947e-01 -3.2925129e-02 0.0000000e+00 
8.6071682e-01 -4.0902432e-02 0.0000000e+00 
9.6611530e-01 -1.2598880e-02 0.0000000e+00 
8.8175613e-01 -3.8071599e-02 0.0000000e+00 
8.2508451e-01 -3.0802468e-02 0.0000000e+00 
8.7024033e-01 -4.2508628e-02 0.0000000e+00 
8.4193492e-01 -3.9596241e-02 0.0000000e+00 
8.3447391e-01 -3.5810359e-02 0.0000000e+00 
8.1978774e-01 -2.3353111e-02 0.0000000e+00 
8.9173895e-01 -3.3438358e-02 0.0000000e+00 
8.9713836e-01 -2.8374661e-02 0.0000000e+00 
0.0000000e+00 0.0000000e+00 0.0000000e+00 
8.2901078e-01 -2.5327638e-02 0.0000000e+00 
8.7754470e-01 -4.3638039e-02 0.0000000e+00 
8.8838422e-01 -3.8680416e-02 0.0000000e+00 
8.5474318e-01 -4.7079280e-02 0.0000000e+00 
8.4502202e-01 -4.6136171e-02 0.0000000e+00 
8.6521989e-01 -4.8354760e-02 0.0000000e+00 
8.3659542e-01 -4.4296075e-02 0.0000000e+00 
9.3608099e-01 -1.4213026e-02 0.0000000e+00 
8.9781630e-01 -3.3518087e-02 0.0000000e+00 
8.8465041e-01 -4.4325877e-02 0.0000000e+00 
8.2826746e-01 -4.1742984e-02 0.0000000e+00 
8.7303805e-01 -4.9569570e-02 0.0000000e+00 
8.1661099e-01 -3.6689304e-02 0.0000000e+00 
8.1035680e-01 -2.7725814e-02 0.0000000e+00 
8.9482206e-01 -3.8834579e-02 0.0000000e+00 
9.0174663e-01 -3.1594440e-02 0.0000000e+00 
0.0000000e+00 0.0000000e+00 0.0000000e+00 
8.5984296e-01 -5.4538570e-02 0.0000000e+00 
8.3196419e-01 -3.1073736e-02 0.0000000e+00 
8.8059831e-01 -5.0343923e-02 0.0000000e+00 
8.4768075e-01 -5.4439750e-02 0.0000000e+00 
8.9155000e-01 -4.4557773e-02 0.0000000e+00 
8.3889085e-01 -5.2441396e-02 0.0000000e+00 
8.6818403e-01 -5.5862498e-02 0.0000000e+00 
8.3010143e-01 -5.0374392e-02 0.0000000e+00 
9.0073746e-01 -3.7630636e-02 0.0000000e+00 
9.0129030e-01 -1.7912310e-02 0.0000000e+00 
8.8798064e-01 -5.0650816e-02 0.0000000e+00 
8.2266527e-01 -4.7812514e-02 0.0000000e+00 
8.7622893e-01 -5.6747630e-02 0.0000000e+00 
8.0268729e-01 -3.2074403e-02 0.0000000e+00 
8.0726439e-01 -4.1916449e-02 0.0000000e+00 
8.9830345e-01 -4.4345342e-02 0.0000000e+00 
9.0661412e-01 -3.4580704e-02 0.0000000e+00 
0.0000000e+00 0.0000000e+00 0.0000000e+00 
8.5099125e-01 -6.3101321e-02 0.0000000e+00 
8.4188354e-01 -6.1758667e-02 0.0000000e+00 
8.3388603e-01 -3.7210252e-02 0.0000000e+00 
8.8411331e-01 -5.7128970e-02 0.0000000e+00 
8.3246887e-01 -5.9492853e-02 0.0000000e+00 
8.9518368e-01 -5.0506942e-02 0.0000000e+00 
8.6026579e-01 -6.4223714e-02 0.0000000e+00 
8.7149960e-01 -6.3564777e-02 0.0000000e+00 
8.2302481e-01 -5.7227321e-02 0.0000000e+00 
9.0476096e-01 -4.3061845e-02 0.0000000e+00 
8.5609275e-01 -2.3547569e-02 0.0000000e+00 
7.9665494e-01 -4.1426565e-02 0.0000000e+00 
8.1531686e-01 -5.3767849e-02 0.0000000e+00 
8.9180171e-01 -5.7039518e-02 0.0000000e+00 
8.7993520e-01 -6.4009808e-02 0.0000000e+00 
8.0027980e-01 -3.7049774e-02 0.0000000e+00 
9.0219575e-01 -4.9925748e-02 0.0000000e+00 
8.4514308e-01 -7.0541933e-02 0.0000000e+00 
8.0423033e-01 -4.9709760e-02 0.0000000e+00 
9.1193449e-01 -3.7332516e-02 0.0000000e+00 
0.0000000e+00 0.0000000e+00 0.0000000e+00 
8.3530378e-01 -6.9065243e-02 0.0000000e+00 
8.5481185e-01 -7.1789175e-02 0.0000000e+00 
8.6408132e-01 -7.1228139e-02 0.0000000e+00 
8.2537591e-01 -6.6510372e-02 0.0000000e+00 
8.4003395e-01 -4.2366575e-02 0.0000000e+00 
8.8814002e-01 -6.3973591e-02 0.0000000e+00 
8.9928788e-01 -5.6503743e-02 0.0000000e+00 
9.1120601e-01 -4.2654235e-02 0.0000000e+00 
8.7385714e-01 -7.1515009e-02 0.0000000e+00 
8.1466275e-01 -6.4400166e-02 0.0000000e+00 
7.8757954e-01 -4.4395123e-02 0.0000000e+00 
8.2288516e-01 -3.1611789e-02 0.0000000e+00 
9.0900058e-01 -4.8922356e-02 0.0000000e+00 
8.8266450e-01 -7.0859879e-02 0.0000000e+00 
8.0575675e-01 -6.1014615e-02 0.0000000e+00 
8.9611870e-01 -6.3472770e-02 0.0000000e+00 
7.9548609e-01 -3.5688315e-02 0.0000000e+00 
8.5016090e-01 -7.9503968e-02 0.0000000e+00 
8.3902198e-01 -7.8541033e-02 0.0000000e+00 
9.0657103e-01 -5.5537589e-02 0.0000000e+00 
8.2868046e-01 -7.6424181e-02 0.0000000e+00 
8.6005288e-01 -7.9810657e-02 0.0000000e+00 
7.9654074e-01 -5.7498109e-02 0.0000000e+00 
9.1754973e-01 -3.9845098e-02 0.0000000e+00 
0.0000000e+00 0.0000000e+00 0.0000000e+00 
8.1823927e-01 -7.3930956e-02 0.0000000e+00 
8.6966866e-01 -7.9720050e-02 0.0000000e+00 
8.9267135e-01 -7.0861861e-02 0.0000000e+00 
8.3850676e-01 -3.4991063e-02 0.0000000e+00 
9.0387368e-01 -6.2534817e-02 0.0000000e+00 
9.1600430e-01 -4.6693269e-02 0.0000000e+00 
8.7898624e-01 -7.8992248e-02 0.0000000e+00 
8.0668288e-01 -7.1468040e-02 0.0000000e+00 
7.7627790e-01 -5.2761734e-02 0.0000000e+00 
9.1365319e-01 -5.4154389e-02 0.0000000e+00 
8.8794065e-01 -7.7904172e-02 0.0000000e+00 
7.9710037e-01 -6.8160959e-02 0.0000000e+00 
8.4441668e-01 -8.8031702e-02 0.0000000e+00 
9.0093458e-01 -6.9927819e-02 0.0000000e+00 
8.5497081e-01 -8.8525429e-02 0.0000000e+00 
8.3215016e-01 -8.6892202e-02 0.0000000e+00 
8.3576101e-01 -1.8531092e-02 0.0000000e+00 
8.2120770e-01 -8.4735572e-02 0.0000000e+00 
8.6506504e-01 -8.8375017e-02 0.0000000e+00 
9.1139406e-01 -6.1177302e-02 0.0000000e+00 
7.6618975e-01 -4.6145771e-02 0.0000000e+00 
7.8881305e-01 -6.3418627e-02 0.0000000e+00 
8.1081587e-01 -8.2647078e-02 0.0000000e+00 
9.2356294e-01 -4.2192996e-02 0.0000000e+00 
0.0000000e+00 0.0000000e+00 0.0000000e+00 
8.7518138e-01 -8.7639347e-02 0.0000000e+00 
8.9773953e-01 -7.7769987e-02 0.0000000e+00 
9.2055726e-01 -5.2367669e-02 0.0000000e+00 
9.0893018e-01 -6.8567529e-02 0.0000000e+00 
8.8454825e-01 -8.6427510e-02 0.0000000e+00 
7.9868317e-01 -8.0088027e-02 0.0000000e+00 
8.0685675e-01 -4.4547714e-02 0.0000000e+00 
7.7255350e-01 -5.8307033e-02 0.0000000e+00 
9.1870624e-01 -5.9443414e-02 0.0000000e+00 
8.3810264e-01 -9.7180739e-02 0.0000000e+00 
8.4938389e-01 -9.7774372e-02 0.0000000e+00 
8.9370883e-01 -8.4690601e-02 0.0000000e+00 
7.8692210e-01 -7.5626738e-02 0.0000000e+00 
8.2501709e-01 -9.5900841e-02 0.0000000e+00 
8.6034578e-01 -9.7715065e-02 0.0000000e+00 
6.2517881e-01 -2.9794290e-03 0.0000000e+00 
9.0625507e-01 -7.6376632e-02 0.0000000e+00 
8.1454074e-01 -9.4414718e-02 0.0000000e+00 
8.7096256e-01 -9.6837334e-02 0.0000000e+00 
9.1668850e-01 -6.6805042e-02 0.0000000e+00 
7.5077075e-01 -5.1469285e-02 0.0000000e+00 
8.3983386e-01 -4.5840319e-02 0.0000000e+00 
7.7811676e-01 -7.0992589e-02 0.0000000e+00 
8.0267745e-01 -9.1693379e-02 0.0000000e+00 
8.8113075e-01 -9.5601156e-02 0.0000000e+00 
9.2978269e-01 -4.4263724e-02 0.0000000e+00 
0.0000000e+00 0.0000000e+00 0.0000000e+00 
9.2814291e-01 -4.9550895e-02 0.0000000e+00 
9.0335006e-01 -8.4650390e-02 0.0000000e+00 
9.2573339e-01 -5.7326145e-02 0.0000000e+00 
7.9006064e-01 -8.7981366e-02 0.0000000e+00 
9.1447145e-01 -7.4579351e-02 0.0000000e+00 
8.9082628e-01 -9.3717597e-02 0.0000000e+00 
7.6668084e-01 -6.4772509e-02 0.0000000e+00 
7.6935685e-01 -4.1830055e-02 0.0000000e+00 
8.4338599e-01 -1.0763755e-01 0.0000000e+00 
8.5532081e-01 -1.0742182e-01 0.0000000e+00 
9.2413443e-01 -6.4673714e-02 0.0000000e+00 
8.3157218e-01 -1.0771980e-01 0.0000000e+00 
7.0497996e-01 -3.1225940e-02 0.0000000e+00 
8.6670923e-01 -1.0667931e-01 0.0000000e+00 
8.1923920e-01 -1.0637170e-01 0.0000000e+00 
9.0020335e-01 -9.1551259e-02 0.0000000e+00 
7.7698052e-01 -8.3742924e-02 0.0000000e+00 
9.1207522e-01 -8.2792990e-02 0.0000000e+00 
8.0602717e-01 -1.0408640e-01 0.0000000e+00 
8.7724692e-01 -1.0527092e-01 0.0000000e+00 
9.2235821e-01 -7.2397299e-02 0.0000000e+00 
7.4165148e-01 -5.8907636e-02 0.0000000e+00 
9.3262523e-01 -5.4905109e-02 0.0000000e+00 
7.9319304e-01 -1.0108385e-01 0.0000000e+00 
8.3975321e-01 -3.4851201e-02 0.0000000e+00 
8.8762355e-01 -1.0322835e-01 0.0000000e+00 
7.6586950e-01 -7.7522255e-02 0.0000000e+00 
9.3630016e-01 -4.6182439e-02 0.0000000e+00 
0.0000000e+00 0.0000000e+00 0.0000000e+00 
9.3139970e-01 -6.2222350e-02 0.0000000e+00 
9.0946299e-01 -9.1492735e-02 0.0000000e+00 
7.8030741e-01 -9.7578965e-02 0.0000000e+00 
8.9760041e-01 -1.0095598e-01 0.0000000e+00 
9.2041761e-01 -8.0534630e-02 0.0000000e+00 
8.4978122e-01 -1.1798303e-01 0.0000000e+00 
8.3723056e-01 -1.1836588e-01 0.0000000e+00 
7.5664473e-01 -6.9779649e-02 0.0000000e+00 
8.6192495e-01 -1.1715414e-01 0.0000000e+00 
8.2424039e-01 -1.1828179e-01 0.0000000e+00 
7.3611569e-01 -4.7909100e-02 0.0000000e+00 
9.0561110e-01 -9.7997375e-02 0.0000000e+00 
9.3002576e-01 -6.9882490e-02 0.0000000e+00 
8.1108832e-01 -1.1684200e-01 0.0000000e+00 
8.7347037e-01 -1.1571901e-01 0.0000000e+00 
7.6645744e-01 -9.2197224e-02 0.0000000e+00 
7.7473503e-01 -1.7656857e-02 0.0000000e+00 
7.9694808e-01 -1.1440560e-01 0.0000000e+00 
8.8442606e-01 -1.1347131e-01 0.0000000e+00 
9.3931800e-01 -5.2232001e-02 0.0000000e+00 
9.1833472e-01 -8.9108661e-02 0.0000000e+00 
9.2851847e-01 -7.7934682e-02 0.0000000e+00 
7.3491997e-01 -6.1697047e-02 0.0000000e+00 
9.3839687e-01 -5.9471808e-02 0.0000000e+00 
7.5279909e-01 -8.5644953e-02 0.0000000e+00 
8.9485419e-01 -1.1095668e-01 0.0000000e+00 
7.8306186e-01 -1.1138931e-01 0.0000000e+00 
8.0454046e-01 -4.2233050e-02 0.0000000e+00 
0.0000000e+00 0.0000000e+00 0.0000000e+00 
9.4305152e-01 -4.7823347e-02 0.0000000e+00 
9.3740934e-01 -6.7053497e-02 0.0000000e+00 
8.4401655e-01 -1.2938130e-01 0.0000000e+00 
7.6896316e-01 -1.0689287e-01 0.0000000e+00 
8.5706717e-01 -1.2839143e-01 0.0000000e+00 
9.0478462e-01 -1.0785580e-01 0.0000000e+00 
8.3090901e-01 -1.2995416e-01 0.0000000e+00 
9.1433591e-01 -1.0054291e-01 0.0000000e+00 
9.2689574e-01 -8.6403273e-02 0.0000000e+00 
8.1706583e-01 -1.2926677e-01 0.0000000e+00 
8.6908644e-01 -1.2674142e-01 0.0000000e+00 
7.4214697e-01 -7.8588657e-02 0.0000000e+00 
7.0941544e-01 -4.7193203e-02 0.0000000e+00 
8.0273628e-01 -1.2798776e-01 0.0000000e+00 
8.8087630e-01 -1.2434433e-01 0.0000000e+00 
7.8364527e-01 -1.5289432e-02 0.0000000e+00 
9.3630725e-01 -7.5010106e-02 0.0000000e+00 
9.4439876e-01 -5.5408765e-02 0.0000000e+00 
7.5446528e-01 -1.0103604e-01 0.0000000e+00 
7.8727347e-01 -1.2581761e-01 0.0000000e+00 
8.9221984e-01 -1.2165194e-01 0.0000000e+00 
9.2515963e-01 -9.5333666e-02 0.0000000e+00 
9.3511552e-01 -8.3350964e-02 0.0000000e+00 
9.4453615e-01 -6.3948348e-02 0.0000000e+00 
7.2524697e-01 -7.1181111e-02 0.0000000e+00 
9.0267336e-01 -1.1827752e-01 0.0000000e+00 
7.7227831e-01 -1.2247527e-01 0.0000000e+00 
7.3885834e-01 -9.3611091e-02 0.0000000e+00 
7.7263594e-01 -3.2584488e-02 0.0000000e+00 
8.3795458e-01 -1.4159882e-01 0.0000000e+00 
8.5175824e-01 -1.4042203e-01 0.0000000e+00 
9.4997400e-01 -4.9297523e-02 0.0000000e+00 
0.0000000e+00 0.0000000e+00 0.0000000e+00 
8.2345372e-01 -1.4207509e-01 0.0000000e+00 
8.6486292e-01 -1.3862438e-01 0.0000000e+00 
9.4378042e-01 -7.1796499e-02 0.0000000e+00 
7.5659168e-01 -1.1744322e-01 0.0000000e+00 
8.0904233e-01 -1.4154160e-01 0.0000000e+00 
9.1306138e-01 -1.1470541e-01 0.0000000e+00 
8.7742716e-01 -1.3595979e-01 0.0000000e+00 
9.3383783e-01 -9.2116855e-02 0.0000000e+00 
6.8434811e-01 -6.1407629e-02 0.0000000e+00 
7.9359716e-01 -1.4034076e-01 0.0000000e+00 
7.2690457e-01 -8.5696548e-02 0.0000000e+00 
8.8913912e-01 -1.3298482e-01 0.0000000e+00 
9.2313308e-01 -1.0776076e-01 0.0000000e+00 
9.4297618e-01 -8.0004968e-02 0.0000000e+00 
8.3346283e-01 -1.5639501e-02 0.0000000e+00 
7.4108487e-01 -1.1142397e-01 0.0000000e+00 
9.5112437e-01 -5.9899632e-02 0.0000000e+00 
9.0028870e-01 -1.2928630e-01 0.0000000e+00 
7.7683890e-01 -1.3800424e-01 0.0000000e+00 
7.1776158e-01 -7.3781684e-02 0.0000000e+00 
9.5099616e-01 -6.8349324e-02 0.0000000e+00 
7.6077896e-01 -1.3393101e-01 0.0000000e+00 
9.4213355e-01 -8.8618360e-02 0.0000000e+00 
9.3240404e-01 -1.0344805e-01 0.0000000e+00 
9.1128445e-01 -1.2555076e-01 0.0000000e+00 
8.4639794e-01 -1.5338133e-01 0.0000000e+00 
7.2336483e-01 -1.0414813e-01 0.0000000e+00 
6.9579017e-01 -5.2617222e-02 0.0000000e+00 
8.3146060e-01 -1.5477401e-01 0.0000000e+00 
8.5998130e-01 -1.5128063e-01 0.0000000e+00 
8.7349641e-01 -1.4839144e-01 0.0000000e+00 
8.1600261e-01 -1.5543357e-01 0.0000000e+00 
9.5698279e-01 -5.0429855e-02 0.0000000e+00 
0.0000000e+00 0.0000000e+00 0.0000000e+00 
7.9998696e-01 -1.5463600e-01 0.0000000e+00 
9.5052904e-01 -7.6408103e-02 0.0000000e+00 
8.8636667e-01 -1.4519389e-01 0.0000000e+00 
7.4358869e-01 -1.2903297e-01 0.0000000e+00 
5.7607704e-01 1.9342846e-03 0.0000000e+00 
9.2151272e-01 -1.2065193e-01 0.0000000e+00 
9.4121778e-01 -9.7679190e-02 0.0000000e+00 
6.8394500e-01 -6.0674965e-02 0.0000000e+00 
7.8338683e-01 -1.5317506e-01 0.0000000e+00 
8.9808118e-01 -1.4113761e-01 0.0000000e+00 
9.5794362e-01 -5.7101503e-02 0.0000000e+00 
7.0636457e-01 -9.5717467e-02 0.0000000e+00 
7.7949065e-01 -4.3002103e-02 0.0000000e+00 
9.5004135e-01 -8.4841564e-02 0.0000000e+00 
7.2653246e-01 -1.2191627e-01 0.0000000e+00 
7.6535535e-01 -1.5082948e-01 0.0000000e+00 
9.5780700e-01 -6.4691782e-02 0.0000000e+00 
9.3103707e-01 -1.1664122e-01 0.0000000e+00 
9.0976185e-01 -1.3702928e-01 0.0000000e+00 
8.4033293e-01 -1.6716209e-01 0.0000000e+00 
8.5527533e-01 -1.6504060e-01 0.0000000e+00 
6.9619924e-01 -8.4180623e-02 0.0000000e+00 
9.5767313e-01 -7.2587639e-02 0.0000000e+00 
8.2420886e-01 -1.6865626e-01 0.0000000e+00 
7.4782676e-01 -1.4683768e-01 0.0000000e+00 
8.6963236e-01 -1.6181192e-01 0.0000000e+00 
9.4951761e-01 -9.3671747e-02 0.0000000e+00 
9.2033917e-01 -1.3221408e-01 0.0000000e+00 
6.6593939e-01 -4.8891511e-02 0.0000000e+00 
7.0816559e-01 -1.1357076e-01 0.0000000e+00 
8.0738753e-01 -1.6950782e-01 0.0000000e+00 
8.8296300e-01 -1.5813208e-01 0.0000000e+00 
9.4009185e-01 -1.1173606e-01 0.0000000e+00 
7.9065293e-01 -1.6892664e-01 0.0000000e+00 
9.6426135e-01 -5.1464643e-02 0.0000000e+00 
0.0000000e+00 0.0000000e+00 0.0000000e+00 
8.9551240e-01 -1.5360802e-01 0.0000000e+00 
9.5752150e-01 -8.0848016e-02 0.0000000e+00 
7.2929668e-01 -1.4115749e-01 0.0000000e+00 
6.3327253e-01 -1.8877825e-02 0.0000000e+00 
9.3058413e-01 -1.2743700e-01 0.0000000e+00 
7.7280408e-01 -1.6764264e-01 0.0000000e+00 
9.6473938e-01 -5.9723131e-02 0.0000000e+00 
6.6905099e-01 -7.0326328e-02 0.0000000e+00 
9.0796292e-01 -1.4923964e-01 0.0000000e+00 
6.8874109e-01 -1.0476018e-01 0.0000000e+00 
7.5113505e-01 -3.7688922e-02 0.0000000e+00 
9.4868678e-01 -1.0684095e-01 0.0000000e+00 
9.5737839e-01 -8.9479603e-02 0.0000000e+00 
7.1046996e-01 -1.3404332e-01 0.0000000e+00 
7.5317854e-01 -1.6504996e-01 0.0000000e+00 
9.1908079e-01 -1.4390659e-01 0.0000000e+00 
9.6477216e-01 -6.8620265e-02 0.0000000e+00 
9.4005114e-01 -1.2218954e-01 0.0000000e+00 
8.5017765e-01 -1.7936896e-01 0.0000000e+00 
8.3396304e-01 -1.8215011e-01 0.0000000e+00 
8.6534065e-01 -1.7602010e-01 0.0000000e+00 
6.7661119e-01 -9.3302123e-02 0.0000000e+00 
8.1711298e-01 -1.8399940e-01 0.0000000e+00 
8.8005364e-01 -1.7217891e-01 0.0000000e+00 
9.6488822e-01 -7.6695502e-02 0.0000000e+00 
7.3420888e-01 -1.6063057e-01 0.0000000e+00 
9.2991972e-01 -1.3881379e-01 0.0000000e+00 
9.5725483e-01 -9.8552018e-02 0.0000000e+00 
7.9898387e-01 -1.8502034e-01 0.0000000e+00 
8.9340729e-01 -1.6714983e-01 0.0000000e+00 
6.3923800e-01 -6.0519252e-02 0.0000000e+00 
6.9178313e-01 -1.2599185e-01 0.0000000e+00 
9.4905996e-01 -1.1688298e-01 0.0000000e+00 
7.8032154e-01 -1.8438518e-01 0.0000000e+00 
9.0642142e-01 -1.6181491e-01 0.0000000e+00 
9.7139901e-01 -5.2201197e-02 0.0000000e+00 
0.0000000e+00 0.0000000e+00 0.0000000e+00 
6.7575800e-01 -1.1423001e-01 0.0000000e+00 
9.6505398e-01 -8.5107714e-02 0.0000000e+00 
7.2354054e-01 -2.0649644e-02 0.0000000e+00 
7.1399868e-01 -1.5485692e-01 0.0000000e+00 
9.3992740e-01 -1.3307855e-01 0.0000000e+00 
7.6109129e-01 -1.8317203e-01 0.0000000e+00 
9.1827816e-01 -1.5646373e-01 0.0000000e+00 
9.7124684e-01 -6.4443022e-02 0.0000000e+00 
6.5402031e-01 -8.1134103e-02 0.0000000e+00 
6.7852592e-01 -5.6059118e-02 0.0000000e+00 
9.5744205e-01 -1.1125685e-01 0.0000000e+00 
9.6528131e-01 -9.3908437e-02 0.0000000e+00 
6.9396716e-01 -1.4759150e-01 0.0000000e+00 
9.2946297e-01 -1.5038031e-01 0.0000000e+00 
7.3992294e-01 -1.8038645e-01 0.0000000e+00 
9.7160697e-01 -7.2379924e-02 0.0000000e+00 
8.4456140e-01 -1.9516207e-01 0.0000000e+00 
8.6140460e-01 -1.9158038e-01 0.0000000e+00 
8.7693286e-01 -1.8667680e-01 0.0000000e+00 
8.2760507e-01 -1.9848360e-01 0.0000000e+00 
9.4939619e-01 -1.2743518e-01 0.0000000e+00 
8.0961716e-01 -2.0055568e-01 0.0000000e+00 
8.9123523e-01 -1.8162648e-01 0.0000000e+00 
6.5669280e-01 -1.0579534e-01 0.0000000e+00 
7.9003352e-01 -2.0125867e-01 0.0000000e+00 
7.1957034e-01 -1.7592917e-01 0.0000000e+00 
9.7203845e-01 -8.0556817e-02 0.0000000e+00 
9.0510017e-01 -1.7573714e-01 0.0000000e+00 
4.8036209e-01 2.1392468e-03 0.0000000e+00 
6.2409019e-01 -6.8936095e-02 0.0000000e+00 
9.4015443e-01 -1.4467426e-01 0.0000000e+00 
9.6558142e-01 -1.0313110e-01 0.0000000e+00 
6.7333776e-01 -1.3846055e-01 0.0000000e+00 
7.6969105e-01 -2.0147185e-01 0.0000000e+00 