# vtk DataFile Version 4.0
vtk output
ASCII
DATASET UNSTRUCTURED_GRID
POINTS 5817 float
1.0000000e+01 0.0000000e+00 0.0000000e+00 
9.8999996e+00 0.0000000e+00 0.0000000e+00 
1.0000000e+01 1.0000000e-01 0.0000000e+00 
9.8583298e+00 8.8835500e-02 0.0000000e+00 
9.8000002e+00 0.0000000e+00 0.0000000e+00 
1.0000000e+01 2.0000000e-01 0.0000000e+00 
9.8999996e+00 1.7320500e-01 0.0000000e+00 
9.7500000e+00 8.6602502e-02 0.0000000e+00 
9.8000002e+00 1.7320500e-01 0.0000000e+00 
1.0000000e+01 3.0000001e-01 0.0000000e+00 
9.6999998e+00 0.0000000e+00 0.0000000e+00 
9.8583298e+00 2.6650599e-01 0.0000000e+00 
9.6999998e+00 1.7320500e-01 0.0000000e+00 
9.6499996e+00 8.6602502e-02 0.0000000e+00 
9.7500000e+00 2.5980800e-01 0.0000000e+00 
9.9033298e+00 3.4808499e-01 0.0000000e+00 
1.0000000e+01 4.0000001e-01 0.0000000e+00 
9.6000004e+00 0.0000000e+00 0.0000000e+00 
9.8000002e+00 3.4641001e-01 0.0000000e+00 
9.6000004e+00 1.7320500e-01 0.0000000e+00 
9.6499996e+00 2.5980800e-01 0.0000000e+00 
9.8583298e+00 4.2751101e-01 0.0000000e+00 
9.5500002e+00 8.6602502e-02 0.0000000e+00 
9.6999998e+00 3.4641001e-01 0.0000000e+00 
1.0000000e+01 5.0000000e-01 0.0000000e+00 
9.5000000e+00 0.0000000e+00 0.0000000e+00 
9.7500000e+00 4.3301299e-01 0.0000000e+00 
9.5500002e+00 2.5980800e-01 0.0000000e+00 
9.6000004e+00 3.4641001e-01 0.0000000e+00 
9.5000000e+00 1.7320500e-01 0.0000000e+00 
9.8999996e+00 5.1961499e-01 0.0000000e+00 
9.4499998e+00 8.6602502e-02 0.0000000e+00 
9.6499996e+00 4.3301299e-01 0.0000000e+00 
9.8000002e+00 5.1961499e-01 0.0000000e+00 
1.0000000e+01 6.0000002e-01 0.0000000e+00 
9.3999996e+00 0.0000000e+00 0.0000000e+00 
9.6999998e+00 5.1961499e-01 0.0000000e+00 
9.4499998e+00 2.5980800e-01 0.0000000e+00 
9.5000000e+00 3.4641001e-01 0.0000000e+00 
9.8893099e+00 6.1410201e-01 0.0000000e+00 
9.3999996e+00 1.7320500e-01 0.0000000e+00 
9.5500002e+00 4.3301299e-01 0.0000000e+00 
9.3500004e+00 8.6602502e-02 0.0000000e+00 
9.6000004e+00 5.1961499e-01 0.0000000e+00 
9.7873602e+00 6.3313198e-01 0.0000000e+00 
9.3999996e+00 3.4641001e-01 0.0000000e+00 
9.3000002e+00 0.0000000e+00 0.0000000e+00 
1.0000000e+01 6.9999999e-01 0.0000000e+00 
9.3500004e+00 2.5980800e-01 0.0000000e+00 
9.4499998e+00 4.3301299e-01 0.0000000e+00 
9.6772203e+00 6.2931901e-01 0.0000000e+00 
9.3000002e+00 1.7320500e-01 0.0000000e+00 
9.8485203e+00 7.1224803e-01 0.0000000e+00 
9.5041599e+00 5.3742099e-01 0.0000000e+00 
9.2500000e+00 8.6602502e-02 0.0000000e+00 
9.5762100e+00 6.3882500e-01 0.0000000e+00 
9.7494297e+00 7.2565800e-01 0.0000000e+00 
9.3000002e+00 3.4641001e-01 0.0000000e+00 
9.3420296e+00 4.3454701e-01 0.0000000e+00 
9.2500000e+00 2.5980800e-01 0.0000000e+00 
9.9096899e+00 7.9136300e-01 0.0000000e+00 
1.0000000e+01 8.0000001e-01 0.0000000e+00 
9.1999998e+00 0.0000000e+00 0.0000000e+00 
9.6503296e+00 7.3906797e-01 0.0000000e+00 
9.1999998e+00 1.7320500e-01 0.0000000e+00 
9.3813105e+00 5.4442602e-01 0.0000000e+00 
9.8105898e+00 8.0477297e-01 0.0000000e+00 
9.4674196e+00 6.5563202e-01 0.0000000e+00 
9.1499996e+00 8.6602502e-02 0.0000000e+00 
9.7114897e+00 8.1818300e-01 0.0000000e+00 
9.1999998e+00 3.4641001e-01 0.0000000e+00 
9.5512304e+00 7.5247800e-01 0.0000000e+00 
9.2865801e+00 5.0924700e-01 0.0000000e+00 
9.2342796e+00 4.2777699e-01 0.0000000e+00 
9.1499996e+00 2.5980800e-01 0.0000000e+00 
9.8717499e+00 8.8388801e-01 0.0000000e+00 
1.0000000e+01 8.9999998e-01 0.0000000e+00 
9.1000004e+00 0.0000000e+00 0.0000000e+00 
9.1000004e+00 1.7320500e-01 0.0000000e+00 
9.6124001e+00 8.3159399e-01 0.0000000e+00 
9.7726603e+00 8.9729899e-01 0.0000000e+00 
9.3619204e+00 6.7122602e-01 0.0000000e+00 
9.2737198e+00 5.9348202e-01 0.0000000e+00 
9.4521399e+00 7.6588798e-01 0.0000000e+00 
9.2042999e+00 5.2308202e-01 0.0000000e+00 
9.0500002e+00 8.6602502e-02 0.0000000e+00 
9.9329100e+00 9.6300399e-01 0.0000000e+00 
9.6735601e+00 9.1070902e-01 0.0000000e+00 
9.1368198e+00 4.4975999e-01 0.0000000e+00 
9.5132999e+00 8.4500402e-01 0.0000000e+00 
9.0923996e+00 3.6564499e-01 0.0000000e+00 
9.0500002e+00 2.5980800e-01 0.0000000e+00 
9.8338203e+00 9.7641402e-01 0.0000000e+00 
1.0000000e+01 1.0000000e+00 0.0000000e+00 
9.0000000e+00 0.0000000e+00 0.0000000e+00 
9.3530397e+00 7.7929902e-01 0.0000000e+00 
9.0000000e+00 1.7320500e-01 0.0000000e+00 
9.5744600e+00 9.2411900e-01 0.0000000e+00 
9.2438698e+00 6.8863100e-01 0.0000000e+00 
9.7347202e+00 9.8982400e-01 0.0000000e+00 
9.1771202e+00 6.1455202e-01 0.0000000e+00 
9.4141998e+00 8.5841399e-01 0.0000000e+00 
9.1068001e+00 5.4364800e-01 0.0000000e+00 
9.9044905e+00 1.0417700e+00 0.0000000e+00 
8.9499998e+00 8.6602502e-02 0.0000000e+00 
9.6356201e+00 1.0032300e+00 0.0000000e+00 
9.0417004e+00 4.7562101e-01 0.0000000e+00 
9.4753599e+00 9.3752903e-01 0.0000000e+00 
8.9499998e+00 2.5980800e-01 0.0000000e+00 
8.9784098e+00 3.7431899e-01 0.0000000e+00 
9.7958803e+00 1.0689400e+00 0.0000000e+00 
1.0000000e+01 1.1000000e+00 0.0000000e+00 
8.8999996e+00 0.0000000e+00 0.0000000e+00 
9.2132702e+00 7.8782201e-01 0.0000000e+00 
9.1461802e+00 7.1470100e-01 0.0000000e+00 
8.8999996e+00 1.7320500e-01 0.0000000e+00 
9.5365295e+00 1.0166399e+00 0.0000000e+00 
9.0804300e+00 6.3953602e-01 0.0000000e+00 
9.6967897e+00 1.0823500e+00 0.0000000e+00 
9.2791595e+00 8.6298501e-01 0.0000000e+00 
9.3762703e+00 9.5093900e-01 0.0000000e+00 
9.0110798e+00 5.7062602e-01 0.0000000e+00 
9.8643503e+00 1.1422800e+00 0.0000000e+00 
8.8500004e+00 8.6602502e-02 0.0000000e+00 
8.8924799e+00 3.3931199e-01 0.0000000e+00 
8.9442501e+00 4.9722099e-01 0.0000000e+00 
9.5976896e+00 1.0957600e+00 0.0000000e+00 
9.4374304e+00 1.0300500e+00 0.0000000e+00 
8.8500004e+00 2.5980800e-01 0.0000000e+00 
9.7579498e+00 1.1614600e+00 0.0000000e+00 
9.1158600e+00 8.0676198e-01 0.0000000e+00 
8.8780699e+00 4.2282000e-01 0.0000000e+00 
1.0000000e+01 1.2000000e+00 0.0000000e+00 
8.8000002e+00 0.0000000e+00 0.0000000e+00 
9.0481195e+00 7.3358703e-01 0.0000000e+00 
9.1810904e+00 8.8230300e-01 0.0000000e+00 
9.2557602e+00 9.4870597e-01 0.0000000e+00 
8.9842997e+00 6.5732199e-01 0.0000000e+00 
8.8000002e+00 1.7320500e-01 0.0000000e+00 
9.4985905e+00 1.1091700e+00 0.0000000e+00 
9.6588497e+00 1.1748700e+00 0.0000000e+00 
9.9182100e+00 1.2271700e+00 0.0000000e+00 
9.3251104e+00 1.0312500e+00 0.0000000e+00 
8.9135799e+00 5.8930397e-01 0.0000000e+00 
8.8084297e+00 3.5165700e-01 0.0000000e+00 
8.7500000e+00 8.6602502e-02 0.0000000e+00 
9.8191099e+00 1.2405800e+00 0.0000000e+00 
9.3931599e+00 1.1044700e+00 0.0000000e+00 
8.8464403e+00 5.1585698e-01 0.0000000e+00 
9.5597496e+00 1.1882800e+00 0.0000000e+00 
8.7500000e+00 2.5980800e-01 0.0000000e+00 
9.0928097e+00 9.0680802e-01 0.0000000e+00 
9.0184002e+00 8.2787198e-01 0.0000000e+00 
9.7200098e+00 1.2539901e+00 0.0000000e+00 
8.9546299e+00 7.5233299e-01 0.0000000e+00 
9.1608400e+00 9.7992098e-01 0.0000000e+00 
8.7830696e+00 4.4794399e-01 0.0000000e+00 
1.0000000e+01 1.3000000e+00 0.0000000e+00 
8.6999998e+00 0.0000000e+00 0.0000000e+00 
8.8883896e+00 6.7804497e-01 0.0000000e+00 
9.2278700e+00 1.0539600e+00 0.0000000e+00 
9.4606600e+00 1.2017000e+00 0.0000000e+00 
8.6918802e+00 1.9270100e-01 0.0000000e+00 
9.6209202e+00 1.2674000e+00 0.0000000e+00 
9.8934698e+00 1.3188500e+00 0.0000000e+00 
9.2957001e+00 1.1266800e+00 0.0000000e+00 
8.8160496e+00 6.0906202e-01 0.0000000e+00 
8.7121201e+00 3.7280300e-01 0.0000000e+00 
9.7811699e+00 1.3331100e+00 0.0000000e+00 
9.3628101e+00 1.2006400e+00 0.0000000e+00 
8.7522202e+00 5.4296398e-01 0.0000000e+00 
8.9969301e+00 9.2822403e-01 0.0000000e+00 
9.5218201e+00 1.2808100e+00 0.0000000e+00 
9.0639296e+00 1.0024101e+00 0.0000000e+00 
8.9203396e+00 8.4596699e-01 0.0000000e+00 
8.6267500e+00 1.0301200e-01 0.0000000e+00 
8.8568802e+00 7.7282602e-01 0.0000000e+00 
9.1301403e+00 1.0745500e+00 0.0000000e+00 
9.6820803e+00 1.3465199e+00 0.0000000e+00 
8.6461897e+00 3.0343899e-01 0.0000000e+00 
8.6854296e+00 4.6907300e-01 0.0000000e+00 
8.7924404e+00 7.0606899e-01 0.0000000e+00 
1.0000000e+01 1.4000000e+00 0.0000000e+00 
8.6000004e+00 0.0000000e+00 0.0000000e+00 
9.1987696e+00 1.1492000e+00 0.0000000e+00 
9.4227200e+00 1.2942200e+00 0.0000000e+00 
9.8423405e+00 1.4122200e+00 0.0000000e+00 
9.5829802e+00 1.3599300e+00 0.0000000e+00 
9.2651100e+00 1.2213700e+00 0.0000000e+00 
8.7203903e+00 6.3765901e-01 0.0000000e+00 
8.5783300e+00 2.3014100e-01 0.0000000e+00 
8.6154900e+00 3.9815599e-01 0.0000000e+00 
9.7432404e+00 1.4256300e+00 0.0000000e+00 
8.8996496e+00 9.4893199e-01 0.0000000e+00 
8.9663000e+00 1.0233800e+00 0.0000000e+00 
9.3332996e+00 1.2944700e+00 0.0000000e+00 
8.6545601e+00 5.6251901e-01 0.0000000e+00 
8.8232002e+00 8.6615598e-01 0.0000000e+00 
9.0328102e+00 1.0973001e+00 0.0000000e+00 
8.5388403e+00 7.1274497e-02 0.0000000e+00 
9.4838800e+00 1.3733400e+00 0.0000000e+00 
8.7642403e+00 8.0582702e-01 0.0000000e+00 
9.1010399e+00 1.1701699e+00 0.0000000e+00 
9.6441402e+00 1.4390399e+00 0.0000000e+00 
8.5491400e+00 3.2567400e-01 0.0000000e+00 
8.5171900e+00 1.6373500e-01 0.0000000e+00 
8.5903702e+00 4.9454200e-01 0.0000000e+00 
8.6965504e+00 7.3207003e-01 0.0000000e+00 
9.1679201e+00 1.2442800e+00 0.0000000e+00 
1.0000000e+01 1.5000000e+00 0.0000000e+00 
8.5000000e+00 0.0000000e+00 0.0000000e+00 
9.9187202e+00 1.5001400e+00 0.0000000e+00 
9.3847904e+00 1.3867500e+00 0.0000000e+00 
9.8044004e+00 1.5047500e+00 0.0000000e+00 
8.6287603e+00 6.5904301e-01 0.0000000e+00 
9.5450497e+00 1.4524500e+00 0.0000000e+00 
9.2358704e+00 1.3168499e+00 0.0000000e+00 
8.5254898e+00 4.2105001e-01 0.0000000e+00 
8.4849596e+00 2.5780100e-01 0.0000000e+00 
8.8687496e+00 1.0439600e+00 0.0000000e+00 
8.9374199e+00 1.1185300e+00 0.0000000e+00 
9.7053099e+00 1.5181600e+00 0.0000000e+00 
8.7996702e+00 9.7555703e-01 0.0000000e+00 
8.4502602e+00 8.9625701e-02 0.0000000e+00 
9.0043802e+00 1.1929899e+00 0.0000000e+00 
[...]
POINT_DATA 5817
FIELD FieldData 2
VELOCITY 3 5817  float
0.0000000e+00 0.0000000e+00 0.0000000e+00 
0.0000000e+00 0.0000000e+00 0.0000000e+00 
1.1863542e+00 2.9867172e-02 0.0000000e+00 
1.1547790e+00 2.2098912e-02 0.0000000e+00 
0.0000000e+00 0.0000000e+00 0.0000000e+00 
8.3970654e-01 -1.6223121e-02 0.0000000e+00 
8.6297673e-01 6.7645102e-04 0.0000000e+00 
1.1513835e+00 4.4900673e-03 0.0000000e+00 
8.5449785e-01 5.3465674e-03 0.0000000e+00 
9.5282245e-01 9.2367753e-03 0.0000000e+00 
0.0000000e+00 0.0000000e+00 0.0000000e+00 
9.3895447e-01 3.4699896e-03 0.0000000e+00 
8.5070401e-01 2.5493968e-03 0.0000000e+00 
1.1532930e+00 1.1888113e-03 0.0000000e+00 
9.3470782e-01 1.4409239e-03 0.0000000e+00 
9.1836661e-01 -2.5319883e-03 0.0000000e+00 
9.1851574e-01 -3.8051438e-03 0.0000000e+00 
0.0000000e+00 0.0000000e+00 0.0000000e+00 
9.1666681e-01 -4.2603826e-04 0.0000000e+00 
8.4801334e-01 -4.2006571e-04 0.0000000e+00 
9.3244052e-01 -1.2532113e-03 0.0000000e+00 
9.2457157e-01 -1.5786808e-03 0.0000000e+00 
1.1530747e+00 -4.2634570e-06 0.0000000e+00 
9.1408581e-01 -2.0659601e-03 0.0000000e+00 
9.2631173e-01 -1.6235579e-03 0.0000000e+00 
0.0000000e+00 0.0000000e+00 0.0000000e+00 
9.2240286e-01 -3.4539560e-03 0.0000000e+00 
9.3054694e-01 -3.2184941e-03 0.0000000e+00 
9.1165787e-01 -4.0991846e-03 0.0000000e+00 
8.4579194e-01 -2.1731744e-03 0.0000000e+00 
9.2665964e-01 -1.8754315e-03 0.0000000e+00 
1.1511911e+00 -8.2539470e-04 0.0000000e+00 
9.2007762e-01 -5.1580509e-03 0.0000000e+00 
9.2345953e-01 -4.5126714e-03 0.0000000e+00 
9.2733693e-01 -1.9211180e-03 0.0000000e+00 
0.0000000e+00 0.0000000e+00 0.0000000e+00 
9.2152905e-01 -6.1051105e-03 0.0000000e+00 
9.2822397e-01 -4.9403794e-03 0.0000000e+00 
9.0930969e-01 -6.1279703e-03 0.0000000e+00 
9.2593968e-01 -4.2378865e-03 0.0000000e+00 
8.4354460e-01 -3.5000925e-03 0.0000000e+00 
9.1775692e-01 -7.1657547e-03 0.0000000e+00 
1.1480023e+00 -1.4803889e-03 0.0000000e+00 
9.1950059e-01 -8.0721602e-03 0.0000000e+00 
9.2537707e-01 -6.2599550e-03 0.0000000e+00 
9.0704387e-01 -8.0402019e-03 0.0000000e+00 
0.0000000e+00 0.0000000e+00 0.0000000e+00 
9.2886865e-01 -2.8676814e-03 0.0000000e+00 
9.2523640e-01 -6.5601510e-03 0.0000000e+00 
9.1526020e-01 -9.2033911e-03 0.0000000e+00 
9.2353177e-01 -8.5516814e-03 0.0000000e+00 
8.4118217e-01 -4.7229230e-03 0.0000000e+00 
9.2795902e-01 -5.9097777e-03 0.0000000e+00 
9.1767734e-01 -1.0582537e-02 0.0000000e+00 
1.1434718e+00 -2.2275574e-03 0.0000000e+00 
9.2183620e-01 -1.1089089e-02 0.0000000e+00 
9.2696458e-01 -8.4491968e-03 0.0000000e+00 
9.0477967e-01 -1.0003596e-02 0.0000000e+00 
9.1223276e-01 -1.1397501e-02 0.0000000e+00 
9.2150265e-01 -8.1392881e-03 0.0000000e+00 
9.3030858e-01 -5.3221667e-03 0.0000000e+00 
9.3102324e-01 -3.2651895e-03 0.0000000e+00 
0.0000000e+00 0.0000000e+00 0.0000000e+00 
9.2571384e-01 -1.1107325e-02 0.0000000e+00 
8.3892936e-01 -6.2537869e-03 0.0000000e+00 
9.1486228e-01 -1.3728763e-02 0.0000000e+00 
9.2958009e-01 -7.9483716e-03 0.0000000e+00 
9.1997057e-01 -1.4160827e-02 0.0000000e+00 
1.1371733e+00 -3.3415926e-03 0.0000000e+00 
9.2869139e-01 -1.0700226e-02 0.0000000e+00 
9.0253454e-01 -1.1745035e-02 0.0000000e+00 
9.2425799e-01 -1.4000233e-02 0.0000000e+00 
9.1155595e-01 -1.5108435e-02 0.0000000e+00 
9.0839195e-01 -1.3604893e-02 0.0000000e+00 
9.1701806e-01 -9.7586811e-03 0.0000000e+00 
9.3226218e-01 -7.0720669e-03 0.0000000e+00 
9.3354952e-01 -3.7780765e-03 0.0000000e+00 
0.0000000e+00 0.0000000e+00 0.0000000e+00 
8.3729959e-01 -8.2302820e-03 0.0000000e+00 
9.2755783e-01 -1.3666211e-02 0.0000000e+00 
9.3167752e-01 -1.0002472e-02 0.0000000e+00 
9.1785651e-01 -1.7372249e-02 0.0000000e+00 
9.1340691e-01 -1.7733404e-02 0.0000000e+00 
9.2261225e-01 -1.7056564e-02 0.0000000e+00 
9.0946496e-01 -1.7532948e-02 0.0000000e+00 
1.1276469e+00 -5.1925024e-03 0.0000000e+00 
9.3501431e-01 -5.9447186e-03 0.0000000e+00 
9.3085217e-01 -1.3079404e-02 0.0000000e+00 
9.0552384e-01 -1.6768258e-02 0.0000000e+00 
9.2623526e-01 -1.6799033e-02 0.0000000e+00 
8.9851767e-01 -1.4749268e-02 0.0000000e+00 
9.1152292e-01 -1.0944927e-02 0.0000000e+00 
9.3461090e-01 -8.9525115e-03 0.0000000e+00 
9.3635464e-01 -4.2255581e-03 0.0000000e+00 
0.0000000e+00 0.0000000e+00 0.0000000e+00 
9.2066795e-01 -2.0334708e-02 0.0000000e+00 
8.3881044e-01 -1.1388226e-02 0.0000000e+00 
9.2976499e-01 -1.6343923e-02 0.0000000e+00 
9.1525394e-01 -2.1285027e-02 0.0000000e+00 
9.3405211e-01 -1.2162390e-02 0.0000000e+00 
9.1107124e-01 -2.0963760e-02 0.0000000e+00 
9.2469645e-01 -2.0186359e-02 0.0000000e+00 
9.0703303e-01 -2.0750398e-02 0.0000000e+00 
9.3715644e-01 -7.3032738e-03 0.0000000e+00 
1.1138159e+00 -9.1803735e-03 0.0000000e+00 
9.3325448e-01 -1.5533595e-02 0.0000000e+00 
9.0344208e-01 -1.9973248e-02 0.0000000e+00 
9.2846864e-01 -1.9788345e-02 0.0000000e+00 
9.0449542e-01 -1.1524426e-02 0.0000000e+00 
8.9484173e-01 -1.8466085e-02 0.0000000e+00 
9.3725282e-01 -1.0965330e-02 0.0000000e+00 
9.3946040e-01 -4.5832735e-03 0.0000000e+00 
0.0000000e+00 0.0000000e+00 0.0000000e+00 
9.1730565e-01 -2.4919383e-02 0.0000000e+00 
9.1316444e-01 -2.5022428e-02 0.0000000e+00 
8.4455419e-01 -1.5360199e-02 0.0000000e+00 
9.3221998e-01 -1.9103380e-02 0.0000000e+00 
9.0865713e-01 -2.4565935e-02 0.0000000e+00 
9.3665606e-01 -1.4470438e-02 0.0000000e+00 
9.2178977e-01 -2.4752766e-02 0.0000000e+00 
9.2689437e-01 -2.3437077e-02 0.0000000e+00 
9.0429085e-01 -2.4132866e-02 0.0000000e+00 
9.4029957e-01 -9.2131766e-03 0.0000000e+00 
1.0851616e+00 -1.8501075e-02 0.0000000e+00 
8.9406061e-01 -1.9836310e-02 0.0000000e+00 
9.0059191e-01 -2.2925068e-02 0.0000000e+00 
9.3589061e-01 -1.8115390e-02 0.0000000e+00 
9.3098378e-01 -2.2843530e-02 0.0000000e+00 
8.9793319e-01 -1.3327312e-02 0.0000000e+00 
9.4009447e-01 -1.3159357e-02 0.0000000e+00 
9.1516638e-01 -2.8798930e-02 0.0000000e+00 
8.9461464e-01 -2.1177653e-02 0.0000000e+00 
9.4278461e-01 -4.7675986e-03 0.0000000e+00 
0.0000000e+00 0.0000000e+00 0.0000000e+00 
9.1062325e-01 -2.8798599e-02 0.0000000e+00 
9.1980517e-01 -2.8701602e-02 0.0000000e+00 
9.2409480e-01 -2.7669722e-02 0.0000000e+00 
9.0585524e-01 -2.8223485e-02 0.0000000e+00 
8.6757606e-01 -2.2535171e-02 0.0000000e+00 
9.3491012e-01 -2.1949958e-02 0.0000000e+00 
9.3954879e-01 -1.6894722e-02 0.0000000e+00 
9.4354045e-01 -7.8386199e-03 0.0000000e+00 
9.2878360e-01 -2.6960643e-02 0.0000000e+00 
9.0079343e-01 -2.7917612e-02 0.0000000e+00 
8.8981992e-01 -2.0183882e-02 0.0000000e+00 
1.0746529e+00 -3.8062267e-02 0.0000000e+00 
9.4341487e-01 -1.1570478e-02 0.0000000e+00 
9.3297398e-01 -2.5872748e-02 0.0000000e+00 
8.9632052e-01 -2.7167531e-02 0.0000000e+00 
9.3882513e-01 -2.0773221e-02 0.0000000e+00 
8.8407260e-01 -8.2226871e-03 0.0000000e+00 
9.1818893e-01 -3.2644290e-02 0.0000000e+00 
9.1287118e-01 -3.2937426e-02 0.0000000e+00 
9.4314611e-01 -1.5401389e-02 0.0000000e+00 
9.0800673e-01 -3.2637123e-02 0.0000000e+00 
9.2289752e-01 -3.2067515e-02 0.0000000e+00 
8.9102101e-01 -2.5975093e-02 0.0000000e+00 
9.4659668e-01 -5.1486460e-03 0.0000000e+00 
0.0000000e+00 0.0000000e+00 0.0000000e+00 
9.0300375e-01 -3.2050926e-02 0.0000000e+00 
9.2745787e-01 -3.1258665e-02 0.0000000e+00 
9.3787706e-01 -2.4853120e-02 0.0000000e+00 
8.7483758e-01 2.1461993e-03 0.0000000e+00 
9.4264692e-01 -1.9391181e-02 0.0000000e+00 
9.4688284e-01 -9.2308056e-03 0.0000000e+00 
9.3191409e-01 -3.0151013e-02 0.0000000e+00 
8.9772642e-01 -3.1540792e-02 0.0000000e+00 
8.8539267e-01 -2.7638676e-02 0.0000000e+00 
9.4675195e-01 -1.3678151e-02 0.0000000e+00 
9.3618953e-01 -2.8820030e-02 0.0000000e+00 
8.9318091e-01 -3.0538851e-02 0.0000000e+00 
9.1605949e-01 -3.7027758e-02 0.0000000e+00 
9.4198376e-01 -2.3540506e-02 0.0000000e+00 
9.2110974e-01 -3.6572464e-02 0.0000000e+00 
9.1019630e-01 -3.7285168e-02 0.0000000e+00 
1.0781757e+00 7.1112085e-03 0.0000000e+00 
9.0499723e-01 -3.6940824e-02 0.0000000e+00 
9.2590451e-01 -3.5790265e-02 0.0000000e+00 
9.4644427e-01 -1.7754804e-02 0.0000000e+00 
8.7231088e-01 -2.8599070e-02 0.0000000e+00 
8.8817704e-01 -2.8337318e-02 0.0000000e+00 
8.9997590e-01 -3.6556784e-02 0.0000000e+00 
9.5047027e-01 -5.5195787e-03 0.0000000e+00 
0.0000000e+00 0.0000000e+00 0.0000000e+00 
9.3074727e-01 -3.4671914e-02 0.0000000e+00 
9.4111800e-01 -2.7847270e-02 0.0000000e+00 
9.5030761e-01 -1.1691774e-02 0.0000000e+00 
9.4598359e-01 -2.1965522e-02 0.0000000e+00 
9.3526387e-01 -3.3349432e-02 0.0000000e+00 
8.9436549e-01 -3.6105555e-02 0.0000000e+00 
8.1392449e-01 -2.8404372e-02 0.0000000e+00 
8.8630044e-01 -2.5617868e-02 0.0000000e+00 
9.5018297e-01 -1.5926870e-02 0.0000000e+00 
9.1363239e-01 -4.1738361e-02 0.0000000e+00 
9.1906369e-01 -4.1355103e-02 0.0000000e+00 
9.3969727e-01 -3.1691179e-02 0.0000000e+00 
8.8874698e-01 -3.4853633e-02 0.0000000e+00 
9.0743226e-01 -4.1909430e-02 0.0000000e+00 
9.2428309e-01 -4.0610868e-02 0.0000000e+00 
9.2023689e-01 -9.1380216e-03 0.0000000e+00 
9.4539416e-01 -2.6341964e-02 0.0000000e+00 
9.0251333e-01 -4.1788906e-02 0.0000000e+00 
9.2935365e-01 -3.9464563e-02 0.0000000e+00 
9.4994724e-01 -2.0167889e-02 0.0000000e+00 
8.9114696e-01 -2.2042090e-02 0.0000000e+00 
8.9317864e-01 -3.8933199e-02 0.0000000e+00 
8.8269264e-01 -3.3685166e-02 0.0000000e+00 
8.9674908e-01 -4.1186649e-02 0.0000000e+00 
9.3426752e-01 -3.8146000e-02 0.0000000e+00 
9.5448393e-01 -5.7144752e-03 0.0000000e+00 
0.0000000e+00 0.0000000e+00 0.0000000e+00 
9.5426309e-01 -9.0440549e-03 0.0000000e+00 
9.4459736e-01 -3.0872438e-02 0.0000000e+00 
9.5385039e-01 -1.3862931e-02 0.0000000e+00 
8.9089364e-01 -4.0113423e-02 0.0000000e+00 
9.4956738e-01 -2.4584373e-02 0.0000000e+00 
9.3898833e-01 -3.6504269e-02 0.0000000e+00 
8.7583989e-01 -3.1858634e-02 0.0000000e+00 
8.5429490e-01 -1.6641727e-02 0.0000000e+00 
9.1678745e-01 -4.6394523e-02 0.0000000e+00 
9.2248803e-01 -4.5585375e-02 0.0000000e+00 
9.5378506e-01 -1.8179741e-02 0.0000000e+00 
9.1113961e-01 -4.7105119e-02 0.0000000e+00 
1.0151603e+00 -6.3332886e-02 0.0000000e+00 
9.2791915e-01 -4.4541579e-02 0.0000000e+00 
9.0528667e-01 -4.7122024e-02 0.0000000e+00 
9.4352233e-01 -3.4638658e-02 0.0000000e+00 
8.8514113e-01 -3.8753703e-02 0.0000000e+00 
9.4908869e-01 -2.9209366e-02 0.0000000e+00 
8.9910156e-01 -4.6721756e-02 0.0000000e+00 
9.3300539e-01 -4.3187961e-02 0.0000000e+00 
9.5357627e-01 -2.2621656e-02 0.0000000e+00 
8.7851608e-01 -3.2204509e-02 0.0000000e+00 
9.5756698e-01 -1.1600260e-02 0.0000000e+00 
8.9285845e-01 -4.5990892e-02 0.0000000e+00 
8.8199228e-01 -3.0724214e-02 0.0000000e+00 
9.3803895e-01 -4.1497871e-02 0.0000000e+00 
8.7967563e-01 -3.6484048e-02 0.0000000e+00 
9.5869613e-01 -6.0131983e-03 0.0000000e+00 
0.0000000e+00 0.0000000e+00 0.0000000e+00 
9.5766026e-01 -1.6020253e-02 0.0000000e+00 
9.4837612e-01 -3.3948425e-02 0.0000000e+00 
8.8677651e-01 -4.5011647e-02 0.0000000e+00 
9.4287950e-01 -3.9687663e-02 0.0000000e+00 
9.5326328e-01 -2.7201131e-02 0.0000000e+00 
9.2044270e-01 -5.0976787e-02 0.0000000e+00 
9.1445768e-01 -5.1833674e-02 0.0000000e+00 
8.7244493e-01 -3.3097774e-02 0.0000000e+00 
9.2619991e-01 -4.9906611e-02 0.0000000e+00 
9.0823090e-01 -5.2470379e-02 0.0000000e+00 
8.6077923e-01 -2.6004516e-02 0.0000000e+00 
9.4679582e-01 -3.7620232e-02 0.0000000e+00 
9.5765495e-01 -2.0509023e-02 0.0000000e+00 
9.0195519e-01 -5.2416947e-02 0.0000000e+00 
9.3178654e-01 -4.8560522e-02 0.0000000e+00 
8.8039184e-01 -4.3178875e-02 0.0000000e+00 
1.0696301e+00 -4.0112793e-02 0.0000000e+00 
8.9541471e-01 -5.1978804e-02 0.0000000e+00 
9.3708253e-01 -4.6810623e-02 0.0000000e+00 
9.6126705e-01 -9.2879012e-03 0.0000000e+00 
9.5282102e-01 -3.2029785e-02 0.0000000e+00 
9.5753479e-01 -2.5141686e-02 0.0000000e+00 
8.7317473e-01 -2.9801259e-02 0.0000000e+00 
9.6142846e-01 -1.3659875e-02 0.0000000e+00 
8.7437588e-01 -4.0925507e-02 0.0000000e+00 
9.4211614e-01 -4.4915196e-02 0.0000000e+00 
8.8868582e-01 -5.1218446e-02 0.0000000e+00 
8.6025661e-01 -4.0178243e-02 0.0000000e+00 
0.0000000e+00 0.0000000e+00 0.0000000e+00 
9.6301895e-01 -6.2742098e-03 0.0000000e+00 
9.6158701e-01 -1.8192405e-02 0.0000000e+00 
9.1826284e-01 -5.6743897e-02 0.0000000e+00 
8.8204277e-01 -4.9746592e-02 0.0000000e+00 
9.2441905e-01 -5.5613119e-02 0.0000000e+00 
9.4702780e-01 -4.2756435e-02 0.0000000e+00 
9.1204548e-01 -5.7660326e-02 0.0000000e+00 
9.5150894e-01 -3.8356110e-02 0.0000000e+00 
9.5730478e-01 -2.9920783e-02 0.0000000e+00 
9.0539283e-01 -5.7985663e-02 0.0000000e+00 
9.3024552e-01 -5.4207094e-02 0.0000000e+00 
8.6609125e-01 -3.8282160e-02 0.0000000e+00 
8.6129284e-01 -1.6101081e-02 0.0000000e+00 
8.9854455e-01 -5.8016777e-02 0.0000000e+00 
9.3591708e-01 -5.2405916e-02 0.0000000e+00 
1.0632948e+00 -6.6642584e-03 0.0000000e+00 
9.6163768e-01 -2.2839941e-02 0.0000000e+00 
9.6458638e-01 -1.0685013e-02 0.0000000e+00 
8.7523645e-01 -4.7567874e-02 0.0000000e+00 
8.9145422e-01 -5.7717767e-02 0.0000000e+00 
9.4139183e-01 -5.0464325e-02 0.0000000e+00 
9.5693791e-01 -3.4897976e-02 0.0000000e+00 
9.6159971e-01 -2.7610326e-02 0.0000000e+00 
9.6552598e-01 -1.5739806e-02 0.0000000e+00 
8.6133826e-01 -3.6577977e-02 0.0000000e+00 
9.4658184e-01 -4.8189744e-02 0.0000000e+00 
8.8418925e-01 -5.6781102e-02 0.0000000e+00 
8.6878097e-01 -4.4659883e-02 0.0000000e+00 
8.6153221e-01 8.0380164e-04 0.0000000e+00 
9.1593063e-01 -6.2887765e-02 0.0000000e+00 
9.2241555e-01 -6.1688833e-02 0.0000000e+00 
9.6740246e-01 -6.4571234e-03 0.0000000e+00 
0.0000000e+00 0.0000000e+00 0.0000000e+00 
9.0906513e-01 -6.3757874e-02 0.0000000e+00 
9.2877680e-01 -6.0219400e-02 0.0000000e+00 
9.6567768e-01 -2.0429270e-02 0.0000000e+00 
8.7675518e-01 -5.5078261e-02 0.0000000e+00 
9.0216333e-01 -6.4113185e-02 0.0000000e+00 
9.5170277e-01 -4.5811791e-02 0.0000000e+00 
9.3478376e-01 -5.8319222e-02 0.0000000e+00 
9.6144080e-01 -3.2626182e-02 0.0000000e+00 
8.4736198e-01 -3.4780577e-02 0.0000000e+00 
8.9478260e-01 -6.4193815e-02 0.0000000e+00 
8.6160654e-01 -4.1013602e-02 0.0000000e+00 
9.4041240e-01 -5.6295544e-02 0.0000000e+00 
9.5660305e-01 -4.1591536e-02 0.0000000e+00 
9.6578676e-01 -2.5215907e-02 0.0000000e+00 
1.0674186e+00 1.4149562e-02 0.0000000e+00 
8.6928296e-01 -5.2765381e-02 0.0000000e+00 
9.6917409e-01 -1.2768646e-02 0.0000000e+00 
9.4594181e-01 -5.3914472e-02 0.0000000e+00 
8.8711351e-01 -6.3836820e-02 0.0000000e+00 
8.5654908e-01 -3.4539815e-02 0.0000000e+00 
9.6968311e-01 -1.7908664e-02 0.0000000e+00 
8.7931120e-01 -6.2556826e-02 0.0000000e+00 
9.6581316e-01 -3.0154940e-02 0.0000000e+00 
9.6133453e-01 -3.8821716e-02 0.0000000e+00 
9.5128316e-01 -5.1498421e-02 0.0000000e+00 
9.2039418e-01 -6.8153910e-02 0.0000000e+00 
8.6158913e-01 -4.9885716e-02 0.0000000e+00 
7.8183156e-01 -3.0768093e-02 0.0000000e+00 
9.1339177e-01 -6.9459356e-02 0.0000000e+00 
9.2697334e-01 -6.6599421e-02 0.0000000e+00 
9.3339461e-01 -6.4599849e-02 0.0000000e+00 
9.0609896e-01 -7.0402570e-02 0.0000000e+00 
9.7188079e-01 -6.3432851e-03 0.0000000e+00 
0.0000000e+00 0.0000000e+00 0.0000000e+00 
8.9843291e-01 -7.0660196e-02 0.0000000e+00 
9.6992987e-01 -2.2665054e-02 0.0000000e+00 
9.3957347e-01 -6.2490605e-02 0.0000000e+00 
8.7114006e-01 -6.0908034e-02 0.0000000e+00 
8.8683796e-01 -5.4538776e-03 0.0000000e+00 
9.5639849e-01 -4.8505630e-02 0.0000000e+00 
9.6582276e-01 -3.5286438e-02 0.0000000e+00 
8.6033463e-01 -2.6201701e-02 0.0000000e+00 
8.9051682e-01 -7.0645273e-02 0.0000000e+00 
9.4537306e-01 -5.9985965e-02 0.0000000e+00 
9.7312319e-01 -1.0542515e-02 0.0000000e+00 
8.5294187e-01 -4.6719339e-02 0.0000000e+00 
8.7826121e-01 -4.6449099e-02 0.0000000e+00 
9.7012430e-01 -2.7516298e-02 0.0000000e+00 
8.6275244e-01 -5.8074437e-02 0.0000000e+00 
8.8224584e-01 -7.0273802e-02 0.0000000e+00 
9.7353631e-01 -1.5251284e-02 0.0000000e+00 
9.6124947e-01 -4.5953482e-02 0.0000000e+00 
9.5096457e-01 -5.7418548e-02 0.0000000e+00 
9.1803265e-01 -7.5017124e-02 0.0000000e+00 
9.2526966e-01 -7.3433645e-02 0.0000000e+00 
8.4247035e-01 -4.2228576e-02 0.0000000e+00 
9.7394663e-01 -2.0010132e-02 0.0000000e+00 
9.1046536e-01 -7.6348066e-02 0.0000000e+00 
8.7379223e-01 -6.9045037e-02 0.0000000e+00 
9.3203396e-01 -7.1304038e-02 0.0000000e+00 
9.7027159e-01 -3.2658007e-02 0.0000000e+00 
9.5625800e-01 -5.4563321e-02 0.0000000e+00 
8.1585252e-01 -1.3071231e-02 0.0000000e+00 
8.5445100e-01 -5.4529261e-02 0.0000000e+00 
9.0258241e-01 -7.7395238e-02 0.0000000e+00 
9.3840951e-01 -6.9009028e-02 0.0000000e+00 
9.6584666e-01 -4.2934146e-02 0.0000000e+00 
8.9459968e-01 -7.7737302e-02 0.0000000e+00 
9.7673184e-01 -6.6014207e-03 0.0000000e+00 
0.0000000e+00 0.0000000e+00 0.0000000e+00 
9.4456655e-01 -6.6335529e-02 0.0000000e+00 
9.7426862e-01 -2.4883153e-02 0.0000000e+00 
8.6488628e-01 -6.7057580e-02 0.0000000e+00 
9.6308351e-01 -2.1823907e-02 0.0000000e+00 
9.6141875e-01 -5.1685795e-02 0.0000000e+00 
8.8613635e-01 -7.7823691e-02 0.0000000e+00 
9.7746927e-01 -1.1757525e-02 0.0000000e+00 
8.3924520e-01 -3.8825732e-02 0.0000000e+00 
9.5045692e-01 -6.3706584e-02 0.0000000e+00 
8.4629315e-01 -5.0680086e-02 0.0000000e+00 
8.6823976e-01 -9.4330879e-03 0.0000000e+00 
9.7035813e-01 -3.9976500e-02 0.0000000e+00 
9.7452420e-01 -2.9893873e-02 0.0000000e+00 
8.5557902e-01 -6.4272925e-02 0.0000000e+00 
8.7705207e-01 -7.7354215e-02 0.0000000e+00 
9.5604318e-01 -6.0640365e-02 0.0000000e+00 
9.7797495e-01 -1.7255284e-02 0.0000000e+00 
9.6619737e-01 -4.8566215e-02 0.0000000e+00 
9.2336041e-01 -8.0514669e-02 0.0000000e+00 
9.1554552e-01 -8.2407244e-02 0.0000000e+00 
9.3046618e-01 -7.8349493e-02 0.0000000e+00 
8.3652133e-01 -4.4728193e-02 0.0000000e+00 
9.0765661e-01 -8.3866537e-02 0.0000000e+00 
9.3745440e-01 -7.6004677e-02 0.0000000e+00 
9.7837919e-01 -2.2111721e-02 0.0000000e+00 
8.6794251e-01 -7.5909503e-02 0.0000000e+00 
9.6145481e-01 -5.7653729e-02 0.0000000e+00 
9.7474635e-01 -3.5069823e-02 0.0000000e+00 
8.9921212e-01 -8.5026942e-02 0.0000000e+00 
9.4393820e-01 -7.3148035e-02 0.0000000e+00 
8.0699503e-01 -3.6384542e-02 0.0000000e+00 
8.4656423e-01 -6.1271511e-02 0.0000000e+00 
9.7090918e-01 -4.5429867e-02 0.0000000e+00 
8.9031082e-01 -8.5350558e-02 0.0000000e+00 
9.5004243e-01 -7.0024103e-02 0.0000000e+00 
9.8145074e-01 -6.7765680e-03 0.0000000e+00 
0.0000000e+00 0.0000000e+00 0.0000000e+00 
8.3954924e-01 -5.6083180e-02 0.0000000e+00 
9.7879767e-01 -2.7064687e-02 0.0000000e+00 
1.0175488e+00 5.8878670e-03 0.0000000e+00 
8.5827327e-01 -7.3995374e-02 0.0000000e+00 
9.6647966e-01 -5.4332558e-02 0.0000000e+00 
8.8129598e-01 -8.5529134e-02 0.0000000e+00 
9.5601350e-01 -6.7024507e-02 0.0000000e+00 
9.8184699e-01 -1.4378411e-02 0.0000000e+00 
8.3397150e-01 -3.9793771e-02 0.0000000e+00 
7.6522285e-01 -3.1090215e-02 0.0000000e+00 
9.7529715e-01 -4.2102471e-02 0.0000000e+00 
9.7925508e-01 -3.2157470e-02 0.0000000e+00 
8.4844953e-01 -7.1278088e-02 0.0000000e+00 
9.6154165e-01 -6.3557811e-02 0.0000000e+00 
8.7134451e-01 -8.5019074e-02 0.0000000e+00 
9.8231620e-01 -1.9300079e-02 0.0000000e+00 
9.2122912e-01 -8.8250868e-02 0.0000000e+00 
9.2905635e-01 -8.5982122e-02 0.0000000e+00 
9.3637162e-01 -8.3164088e-02 0.0000000e+00 
9.1309339e-01 -9.0393320e-02 0.0000000e+00 
9.7138363e-01 -5.1079493e-02 0.0000000e+00 
9.0465569e-01 -9.1954388e-02 0.0000000e+00 
9.4327176e-01 -8.0262117e-02 0.0000000e+00 
8.2696325e-01 -5.2693773e-02 0.0000000e+00 
8.9561313e-01 -9.2990875e-02 0.0000000e+00 
8.6170489e-01 -8.3658181e-02 0.0000000e+00 
9.8281235e-01 -2.4168013e-02 0.0000000e+00 
9.4980663e-01 -7.6997638e-02 0.0000000e+00 
8.3482629e-01 -6.7650882e-04 0.0000000e+00 
8.2853818e-01 -3.3874482e-02 0.0000000e+00 
9.6687663e-01 -6.0348529e-02 0.0000000e+00 
9.7973949e-01 -3.7370317e-02 0.0000000e+00 
8.3830160e-01 -6.7679971e-02 0.0000000e+00 
8.8582772e-01 -9.3705460e-02 0.0000000e+00 