# vtk DataFile Version 4.0
vtk output
ASCII
DATASET UNSTRUCTURED_GRID
POINTS 3806 float
2.0000000e+01 1.0000000e+01 0.0000000e+00 
1.9750000e+01 1.0000000e+01 0.0000000e+00 
2.0000000e+01 9.7500000e+00 0.0000000e+00 
1.9625000e+01 9.7427902e+00 0.0000000e+00 
2.0000000e+01 9.5000000e+00 0.0000000e+00 
1.9500000e+01 1.0000000e+01 0.0000000e+00 
1.9750000e+01 9.5262804e+00 0.0000000e+00 
1.9375000e+01 9.7427902e+00 0.0000000e+00 
1.9500000e+01 9.5262804e+00 0.0000000e+00 
1.9250000e+01 1.0000000e+01 0.0000000e+00 
2.0000000e+01 9.2500000e+00 0.0000000e+00 
1.9645800e+01 9.2998104e+00 0.0000000e+00 
1.9250000e+01 9.5262804e+00 0.0000000e+00 
1.9125000e+01 9.7427902e+00 0.0000000e+00 
1.9375000e+01 9.3097696e+00 0.0000000e+00 
1.9750000e+01 9.0932703e+00 0.0000000e+00 
2.0000000e+01 9.0000000e+00 0.0000000e+00 
1.9000000e+01 1.0000000e+01 0.0000000e+00 
1.9500000e+01 9.0932703e+00 0.0000000e+00 
1.9000000e+01 9.5262804e+00 0.0000000e+00 
1.9125000e+01 9.3097696e+00 0.0000000e+00 
1.8875000e+01 9.7427902e+00 0.0000000e+00 
1.9696400e+01 8.8762598e+00 0.0000000e+00 
1.9250000e+01 9.0932703e+00 0.0000000e+00 
2.0000000e+01 8.7500000e+00 0.0000000e+00 
1.8750000e+01 1.0000000e+01 0.0000000e+00 
1.9375000e+01 8.8767595e+00 0.0000000e+00 
1.8875000e+01 9.3097696e+00 0.0000000e+00 
1.8750000e+01 9.5262804e+00 0.0000000e+00 
1.9000000e+01 9.0932703e+00 0.0000000e+00 
1.9750000e+01 8.6602497e+00 0.0000000e+00 
1.8625000e+01 9.7427902e+00 0.0000000e+00 
1.9125000e+01 8.8767595e+00 0.0000000e+00 
1.9500000e+01 8.6602497e+00 0.0000000e+00 
2.0000000e+01 8.5000000e+00 0.0000000e+00 
1.8500000e+01 1.0000000e+01 0.0000000e+00 
1.9250000e+01 8.6602497e+00 0.0000000e+00 
1.8625000e+01 9.3097696e+00 0.0000000e+00 
1.8750000e+01 9.0932703e+00 0.0000000e+00 
1.8500000e+01 9.5262804e+00 0.0000000e+00 
1.9645800e+01 8.4531202e+00 0.0000000e+00 
1.8875000e+01 8.8767595e+00 0.0000000e+00 
1.8375000e+01 9.7427902e+00 0.0000000e+00 
1.9000000e+01 8.6602497e+00 0.0000000e+00 
1.9375000e+01 8.4437504e+00 0.0000000e+00 
2.0000000e+01 8.2500000e+00 0.0000000e+00 
1.8250000e+01 1.0000000e+01 0.0000000e+00 
1.8500000e+01 9.0932703e+00 0.0000000e+00 
1.8375000e+01 9.3097696e+00 0.0000000e+00 
1.8625000e+01 8.8767595e+00 0.0000000e+00 
1.9125000e+01 8.4437504e+00 0.0000000e+00 
1.9750000e+01 8.2272396e+00 0.0000000e+00 
1.8250000e+01 9.5262804e+00 0.0000000e+00 
1.8750000e+01 8.6602497e+00 0.0000000e+00 
1.9500000e+01 8.2272396e+00 0.0000000e+00 
1.8125000e+01 9.7427902e+00 0.0000000e+00 
1.8875000e+01 8.4437504e+00 0.0000000e+00 
1.9250000e+01 8.2272396e+00 0.0000000e+00 
1.8250000e+01 9.0932703e+00 0.0000000e+00 
1.8375000e+01 8.8767595e+00 0.0000000e+00 
1.8125000e+01 9.3097696e+00 0.0000000e+00 
2.0000000e+01 8.0000000e+00 0.0000000e+00 
1.8000000e+01 1.0000000e+01 0.0000000e+00 
1.8500000e+01 8.6602497e+00 0.0000000e+00 
1.9625000e+01 8.0107298e+00 0.0000000e+00 
1.9000000e+01 8.2272396e+00 0.0000000e+00 
1.8000000e+01 9.5262804e+00 0.0000000e+00 
1.8625000e+01 8.4437504e+00 0.0000000e+00 
1.9375000e+01 8.0107298e+00 0.0000000e+00 
1.7875000e+01 9.7834902e+00 0.0000000e+00 
1.8750000e+01 8.2272396e+00 0.0000000e+00 
1.9125000e+01 8.0107298e+00 0.0000000e+00 
1.8125000e+01 8.8767595e+00 0.0000000e+00 
1.8000000e+01 9.0932703e+00 0.0000000e+00 
1.8250000e+01 8.6602497e+00 0.0000000e+00 
1.9750000e+01 7.7942300e+00 0.0000000e+00 
1.7875000e+01 9.3097696e+00 0.0000000e+00 
2.0000000e+01 7.7500000e+00 0.0000000e+00 
1.7750000e+01 1.0000000e+01 0.0000000e+00 
1.8375000e+01 8.4437504e+00 0.0000000e+00 
1.9500000e+01 7.7942300e+00 0.0000000e+00 
1.8875000e+01 8.0107298e+00 0.0000000e+00 
1.7750000e+01 9.5262804e+00 0.0000000e+00 
1.8500000e+01 8.2272396e+00 0.0000000e+00 
1.9250000e+01 7.7942300e+00 0.0000000e+00 
1.7625000e+01 9.7834902e+00 0.0000000e+00 
1.7875000e+01 8.8767595e+00 0.0000000e+00 
1.8000000e+01 8.6602497e+00 0.0000000e+00 
1.8625000e+01 8.0107298e+00 0.0000000e+00 
1.9000000e+01 7.7942300e+00 0.0000000e+00 
1.7750000e+01 9.0932703e+00 0.0000000e+00 
1.8125000e+01 8.4437504e+00 0.0000000e+00 
1.9645800e+01 7.5647702e+00 0.0000000e+00 
1.7625000e+01 9.3097696e+00 0.0000000e+00 
1.8250000e+01 8.2272396e+00 0.0000000e+00 
2.0000000e+01 7.5000000e+00 0.0000000e+00 
1.7500000e+01 1.0000000e+01 0.0000000e+00 
1.9375000e+01 7.5777202e+00 0.0000000e+00 
1.8750000e+01 7.7942300e+00 0.0000000e+00 
1.7500000e+01 9.5262804e+00 0.0000000e+00 
1.8375000e+01 8.0107298e+00 0.0000000e+00 
1.9125000e+01 7.5777202e+00 0.0000000e+00 
1.7750000e+01 8.6602497e+00 0.0000000e+00 
1.7625000e+01 8.8767595e+00 0.0000000e+00 
1.7875000e+01 8.4437504e+00 0.0000000e+00 
1.7375000e+01 9.7427902e+00 0.0000000e+00 
1.9768499e+01 7.3630099e+00 0.0000000e+00 
1.7500000e+01 9.0932703e+00 0.0000000e+00 
1.8500000e+01 7.7942300e+00 0.0000000e+00 
1.8875000e+01 7.5777202e+00 0.0000000e+00 
1.8000000e+01 8.2272396e+00 0.0000000e+00 
1.9500000e+01 7.3612199e+00 0.0000000e+00 
1.7375000e+01 9.3097696e+00 0.0000000e+00 
1.8125000e+01 8.0107298e+00 0.0000000e+00 
1.9250000e+01 7.3612199e+00 0.0000000e+00 
2.0000000e+01 7.2500000e+00 0.0000000e+00 
1.7250000e+01 1.0000000e+01 0.0000000e+00 
1.8625000e+01 7.5777202e+00 0.0000000e+00 
1.7250000e+01 9.5262804e+00 0.0000000e+00 
1.8250000e+01 7.7942300e+00 0.0000000e+00 
1.9000000e+01 7.3612199e+00 0.0000000e+00 
1.7500000e+01 8.6602497e+00 0.0000000e+00 
1.7625000e+01 8.4437504e+00 0.0000000e+00 
1.7375000e+01 8.8767595e+00 0.0000000e+00 
1.7750000e+01 8.2272396e+00 0.0000000e+00 
1.9696400e+01 7.1390800e+00 0.0000000e+00 
1.7125000e+01 9.7427902e+00 0.0000000e+00 
1.7250000e+01 9.0932703e+00 0.0000000e+00 
1.7875000e+01 8.0107298e+00 0.0000000e+00 
1.8375000e+01 7.5777202e+00 0.0000000e+00 
1.8750000e+01 7.3612199e+00 0.0000000e+00 
1.9375000e+01 7.1447101e+00 0.0000000e+00 
1.7125000e+01 9.3097696e+00 0.0000000e+00 
1.8000000e+01 7.7942300e+00 0.0000000e+00 
1.9125000e+01 7.1447101e+00 0.0000000e+00 
2.0000000e+01 7.0000000e+00 0.0000000e+00 
1.7000000e+01 1.0000000e+01 0.0000000e+00 
1.8500000e+01 7.3612199e+00 0.0000000e+00 
1.7000000e+01 9.5262804e+00 0.0000000e+00 
1.7375000e+01 8.4437504e+00 0.0000000e+00 
1.7250000e+01 8.6602497e+00 0.0000000e+00 
1.8125000e+01 7.5777202e+00 0.0000000e+00 
1.7500000e+01 8.2272396e+00 0.0000000e+00 
1.8875000e+01 7.1447101e+00 0.0000000e+00 
1.9750000e+01 6.9281998e+00 0.0000000e+00 
1.7125000e+01 8.8767595e+00 0.0000000e+00 
1.7625000e+01 8.0107298e+00 0.0000000e+00 
1.9500000e+01 6.9281998e+00 0.0000000e+00 
1.7000000e+01 9.0932703e+00 0.0000000e+00 
1.6875000e+01 9.7427902e+00 0.0000000e+00 
1.7750000e+01 7.7942300e+00 0.0000000e+00 
1.9250000e+01 6.9281998e+00 0.0000000e+00 
1.8250000e+01 7.3612199e+00 0.0000000e+00 
1.8625000e+01 7.1447101e+00 0.0000000e+00 
1.6875000e+01 9.3097696e+00 0.0000000e+00 
1.7875000e+01 7.5777202e+00 0.0000000e+00 
1.9000000e+01 6.9281998e+00 0.0000000e+00 
2.0000000e+01 6.7500000e+00 0.0000000e+00 
1.6750000e+01 1.0000000e+01 0.0000000e+00 
1.7125000e+01 8.4437504e+00 0.0000000e+00 
1.7250000e+01 8.2272396e+00 0.0000000e+00 
1.6750000e+01 9.5262804e+00 0.0000000e+00 
1.8375000e+01 7.1447101e+00 0.0000000e+00 
1.7000000e+01 8.6602497e+00 0.0000000e+00 
1.7375000e+01 8.0107298e+00 0.0000000e+00 
1.9645800e+01 6.7180800e+00 0.0000000e+00 
1.8000000e+01 7.3612199e+00 0.0000000e+00 
1.8750000e+01 6.9281998e+00 0.0000000e+00 
1.6875000e+01 8.8767595e+00 0.0000000e+00 
1.7500000e+01 7.7942300e+00 0.0000000e+00 
1.9375000e+01 6.7117000e+00 0.0000000e+00 
1.6750000e+01 9.0932703e+00 0.0000000e+00 
1.6625000e+01 9.7427902e+00 0.0000000e+00 
1.7625000e+01 7.5777202e+00 0.0000000e+00 
1.9125000e+01 6.7117000e+00 0.0000000e+00 
1.8125000e+01 7.1447101e+00 0.0000000e+00 
1.8500000e+01 6.9281998e+00 0.0000000e+00 
1.6625000e+01 9.3097696e+00 0.0000000e+00 
1.7750000e+01 7.3612199e+00 0.0000000e+00 
1.8875000e+01 6.7117000e+00 0.0000000e+00 
1.7000000e+01 8.2272396e+00 0.0000000e+00 
1.6875000e+01 8.4437504e+00 0.0000000e+00 
1.7125000e+01 8.0107298e+00 0.0000000e+00 
2.0000000e+01 6.5000000e+00 0.0000000e+00 
1.6500000e+01 1.0000000e+01 0.0000000e+00 
1.9750000e+01 6.4951901e+00 0.0000000e+00 
1.6750000e+01 8.6602497e+00 0.0000000e+00 
1.7250000e+01 7.7942300e+00 0.0000000e+00 
1.6500000e+01 9.5262804e+00 0.0000000e+00 
1.8250000e+01 6.9281998e+00 0.0000000e+00 
1.9500000e+01 6.4951901e+00 0.0000000e+00 
1.6625000e+01 8.8767595e+00 0.0000000e+00 
1.7875000e+01 7.1447101e+00 0.0000000e+00 
1.8625000e+01 6.7117000e+00 0.0000000e+00 
1.7375000e+01 7.5777202e+00 0.0000000e+00 
1.9250000e+01 6.4951901e+00 0.0000000e+00 
1.6500000e+01 9.0932703e+00 0.0000000e+00 
1.6375000e+01 9.7427902e+00 0.0000000e+00 
1.7500000e+01 7.3612199e+00 0.0000000e+00 
1.9000000e+01 6.4951901e+00 0.0000000e+00 
1.8000000e+01 6.9281998e+00 0.0000000e+00 
1.8375000e+01 6.7117000e+00 0.0000000e+00 
1.6375000e+01 9.3097696e+00 0.0000000e+00 
1.6750000e+01 8.2272396e+00 0.0000000e+00 
1.6875000e+01 8.0107298e+00 0.0000000e+00 
1.7625000e+01 7.1447101e+00 0.0000000e+00 
1.6625000e+01 8.4437504e+00 0.0000000e+00 
1.8750000e+01 6.4951901e+00 0.0000000e+00 
1.7000000e+01 7.7942300e+00 0.0000000e+00 
1.9625000e+01 6.2786798e+00 0.0000000e+00 
1.6500000e+01 8.6602497e+00 0.0000000e+00 
2.0000000e+01 6.2500000e+00 0.0000000e+00 
1.6250000e+01 1.0000000e+01 0.0000000e+00 
1.7125000e+01 7.5777202e+00 0.0000000e+00 
1.9375000e+01 6.2786798e+00 0.0000000e+00 
1.6250000e+01 9.5262804e+00 0.0000000e+00 
1.8125000e+01 6.7117000e+00 0.0000000e+00 
1.6375000e+01 8.8767595e+00 0.0000000e+00 
1.7750000e+01 6.9281998e+00 0.0000000e+00 
1.7250000e+01 7.3612199e+00 0.0000000e+00 
1.8500000e+01 6.4951901e+00 0.0000000e+00 
1.9125000e+01 6.2786798e+00 0.0000000e+00 
1.6250000e+01 9.0932703e+00 0.0000000e+00 
1.7375000e+01 7.1447101e+00 0.0000000e+00 
1.6125000e+01 9.7427902e+00 0.0000000e+00 
[...]
POINT_DATA 3806
FIELD FieldData 2
VELOCITY 3 3806  float
9.9972572e+00 -2.2876714e-24 0.0000000e+00 
9.9973993e+00 7.2378304e-25 0.0000000e+00 
9.9971323e+00 -1.4819634e-04 0.0000000e+00 
9.9972925e+00 -8.5218533e-05 0.0000000e+00 
9.9973211e+00 -3.0730266e-04 0.0000000e+00 
9.9974794e+00 -5.6868667e-25 0.0000000e+00 
9.9974365e+00 -1.8808612e-04 0.0000000e+00 
9.9973507e+00 -4.6064459e-05 0.0000000e+00 
9.9975042e+00 -1.1012040e-04 0.0000000e+00 
9.9975262e+00 -5.6868667e-25 0.0000000e+00 
9.9974060e+00 -4.2070964e-04 0.0000000e+00 
9.9975157e+00 -2.1249159e-04 0.0000000e+00 
9.9975367e+00 -4.5321922e-05 0.0000000e+00 
9.9973736e+00 -1.5565358e-05 0.0000000e+00 
9.9975557e+00 -1.0027154e-04 0.0000000e+00 
9.9976130e+00 -3.2522622e-04 0.0000000e+00 
9.9976225e+00 -5.3869595e-04 0.0000000e+00 
9.9975433e+00 2.5849394e-26 0.0000000e+00 
9.9976501e+00 -1.7503121e-04 0.0000000e+00 
9.9975395e+00 4.2867787e-06 0.0000000e+00 
9.9975595e+00 -1.6155722e-05 0.0000000e+00 
9.9973707e+00 6.3482635e-06 0.0000000e+00 
9.9978085e+00 -3.1514131e-04 0.0000000e+00 
9.9976482e+00 -4.9536604e-05 0.0000000e+00 
9.9978113e+00 -6.3414779e-04 0.0000000e+00 
9.9975405e+00 2.5849394e-26 0.0000000e+00 
9.9978085e+00 -1.0116427e-04 0.0000000e+00 
9.9975357e+00 4.6102999e-05 0.0000000e+00 
9.9975195e+00 3.7327980e-05 0.0000000e+00 
9.9976139e+00 4.9239115e-05 0.0000000e+00 
9.9979467e+00 -3.9131794e-04 0.0000000e+00 
9.9973497e+00 1.8738992e-05 0.0000000e+00 
9.9977713e+00 4.0664756e-05 0.0000000e+00 
9.9979362e+00 -1.7062566e-04 0.0000000e+00 
9.9981861e+00 -6.5241108e-04 0.0000000e+00 
9.9975243e+00 2.5849394e-26 0.0000000e+00 
9.9978867e+00 1.8787216e-05 0.0000000e+00 
9.9974899e+00 8.3311177e-05 0.0000000e+00 
9.9975538e+00 1.1867948e-04 0.0000000e+00 
9.9974861e+00 5.0790881e-05 0.0000000e+00 
9.9982481e+00 -2.7959846e-04 0.0000000e+00 
9.9977016e+00 1.5009646e-04 0.0000000e+00 
9.9973230e+00 2.0265466e-05 0.0000000e+00 
9.9978037e+00 1.7318797e-04 0.0000000e+00 
9.9982128e+00 -2.3757892e-05 0.0000000e+00 
9.9983406e+00 -7.2133652e-04 0.0000000e+00 
9.9975061e+00 -3.1019273e-25 0.0000000e+00 
9.9974728e+00 1.5426653e-04 0.0000000e+00 
9.9974327e+00 9.1313348e-05 0.0000000e+00 
9.9976053e+00 2.2314534e-04 0.0000000e+00 
9.9981308e+00 1.7985309e-04 0.0000000e+00 
9.9983644e+00 -3.7420201e-04 0.0000000e+00 
9.9974489e+00 4.0921423e-05 0.0000000e+00 
9.9976873e+00 2.9020588e-04 0.0000000e+00 
9.9982824e+00 -8.0295751e-05 0.0000000e+00 
9.9973040e+00 1.1385919e-05 0.0000000e+00 
9.9980106e+00 3.4722243e-04 0.0000000e+00 
9.9981689e+00 1.7444375e-04 0.0000000e+00 
9.9973793e+00 1.4892028e-04 0.0000000e+00 
9.9974861e+00 2.5311718e-04 0.0000000e+00 
9.9973717e+00 6.3551743e-05 0.0000000e+00 
9.9989920e+00 -6.6379324e-04 0.0000000e+00 
9.9974957e+00 -3.1019273e-25 0.0000000e+00 
9.9975424e+00 3.6364875e-04 0.0000000e+00 
9.9989100e+00 -1.6774911e-04 0.0000000e+00 
9.9980221e+00 3.9146934e-04 0.0000000e+00 
9.9974213e+00 -2.4565218e-06 0.0000000e+00 
9.9978533e+00 4.7244874e-04 0.0000000e+00 
9.9988394e+00 1.3948188e-04 0.0000000e+00 
9.9973097e+00 -1.5581365e-05 0.0000000e+00 
9.9978399e+00 5.6906784e-04 0.0000000e+00 
9.9987240e+00 4.1416820e-04 0.0000000e+00 
9.9973516e+00 2.3104933e-04 0.0000000e+00 
9.9972839e+00 9.4925126e-05 0.0000000e+00 
9.9973726e+00 3.8475616e-04 0.0000000e+00 
9.9988613e+00 -2.2578223e-04 0.0000000e+00 
9.9973211e+00 -6.0845000e-06 0.0000000e+00 
9.9989996e+00 -6.2737870e-04 0.0000000e+00 
9.9975424e+00 1.0339758e-24 0.0000000e+00 
9.9976597e+00 5.4768164e-04 0.0000000e+00 
9.9986572e+00 1.0252922e-04 0.0000000e+00 
9.9985561e+00 6.5172178e-04 0.0000000e+00 
9.9974098e+00 -6.8859023e-05 0.0000000e+00 
9.9976215e+00 7.0044759e-04 0.0000000e+00 
9.9984550e+00 4.1395365e-04 0.0000000e+00 
9.9973450e+00 -6.8905349e-05 0.0000000e+00 
9.9972105e+00 1.4453316e-04 0.0000000e+00 
9.9971838e+00 3.4142006e-04 0.0000000e+00 
9.9983339e+00 8.4855995e-04 0.0000000e+00 
9.9982462e+00 6.9984788e-04 0.0000000e+00 
9.9971972e+00 -2.0142947e-05 0.0000000e+00 
9.9974308e+00 5.6173687e-04 0.0000000e+00 
9.9997406e+00 9.5554333e-07 0.0000000e+00 
9.9973021e+00 -1.3229919e-04 0.0000000e+00 
9.9973688e+00 7.7551993e-04 0.0000000e+00 
9.9998627e+00 -5.9468078e-04 0.0000000e+00 
9.9976330e+00 1.7577588e-24 0.0000000e+00 
9.9996195e+00 4.0377502e-04 0.0000000e+00 
9.9980135e+00 9.5134828e-04 0.0000000e+00 
9.9974413e+00 -1.7350665e-04 0.0000000e+00 
9.9980536e+00 9.9708291e-04 0.0000000e+00 
9.9994516e+00 7.4767525e-04 0.0000000e+00 
9.9969835e+00 2.1779866e-04 0.0000000e+00 
9.9970732e+00 -2.1898013e-05 0.0000000e+00 
9.9971704e+00 4.9957255e-04 0.0000000e+00 
9.9974232e+00 -1.5767869e-04 0.0000000e+00 
9.9995050e+00 -8.2842693e-05 0.0000000e+00 
9.9971352e+00 -2.1182101e-04 0.0000000e+00 
9.9977503e+00 1.1620347e-03 0.0000000e+00 
9.9992123e+00 1.0626104e-03 0.0000000e+00 
9.9970808e+00 7.8031927e-04 0.0000000e+00 
9.9993286e+00 3.3605794e-04 0.0000000e+00 
9.9973269e+00 -3.2579160e-04 0.0000000e+00 
9.9977093e+00 1.0855811e-03 0.0000000e+00 
9.9991770e+00 7.1416504e-04 0.0000000e+00 
9.9999886e+00 -3.5699963e-04 0.0000000e+00 
9.9977770e+00 1.7577588e-24 0.0000000e+00 
9.9988937e+00 1.3485659e-03 0.0000000e+00 
9.9975557e+00 -3.4275459e-04 0.0000000e+00 
9.9974508e+00 1.3220061e-03 0.0000000e+00 
9.9990177e+00 1.0750646e-03 0.0000000e+00 
9.9967813e+00 -6.2315971e-06 0.0000000e+00 
9.9968824e+00 3.4153069e-04 0.0000000e+00 
9.9969540e+00 -2.8792076e-04 0.0000000e+00 
9.9967594e+00 6.9627288e-04 0.0000000e+00 
1.0000228e+01 1.7324896e-04 0.0000000e+00 
9.9976072e+00 -2.6322322e-04 0.0000000e+00 
9.9971170e+00 -4.9654982e-04 0.0000000e+00 
9.9972973e+00 1.0977291e-03 0.0000000e+00 
9.9984846e+00 1.5980944e-03 0.0000000e+00 
9.9988451e+00 1.4141010e-03 0.0000000e+00 
9.9999437e+00 6.9175835e-04 0.0000000e+00 
9.9974174e+00 -5.9804658e-04 0.0000000e+00 
9.9971123e+00 1.4170716e-03 0.0000000e+00 
9.9996576e+00 1.0940901e-03 0.0000000e+00 
1.0000319e+01 -3.5514735e-04 0.0000000e+00 
9.9980307e+00 1.6543612e-24 0.0000000e+00 
9.9986572e+00 1.7273641e-03 0.0000000e+00 
9.9977589e+00 -5.7230383e-04 0.0000000e+00 
9.9965725e+00 6.2528983e-05 0.0000000e+00 
9.9965897e+00 -3.5623828e-04 0.0000000e+00 
9.9979677e+00 1.8001235e-03 0.0000000e+00 
9.9964094e+00 4.9930561e-04 0.0000000e+00 
9.9992971e+00 1.4819159e-03 0.0000000e+00 
1.0000189e+01 2.5851119e-04 0.0000000e+00 
9.9968719e+00 -6.7842630e-04 0.0000000e+00 
9.9968090e+00 1.0117898e-03 0.0000000e+00 
9.9999409e+00 7.2109606e-04 0.0000000e+00 
9.9971685e+00 -8.9844479e-04 0.0000000e+00 
9.9979162e+00 -4.1329197e-04 0.0000000e+00 
9.9967327e+00 1.4278669e-03 0.0000000e+00 
9.9996805e+00 1.1815383e-03 0.0000000e+00 
9.9984503e+00 2.0072034e-03 0.0000000e+00 
9.9988441e+00 1.8562180e-03 0.0000000e+00 
9.9976101e+00 -9.7297301e-04 0.0000000e+00 
9.9973259e+00 1.9388366e-03 0.0000000e+00 
9.9993763e+00 1.6405138e-03 0.0000000e+00 
1.0001616e+01 -6.9654452e-05 0.0000000e+00 
9.9984303e+00 1.6543612e-24 0.0000000e+00 
9.9962492e+00 -3.6886896e-04 0.0000000e+00 
9.9960365e+00 1.5885118e-04 0.0000000e+00 
9.9980907e+00 -8.8083261e-04 0.0000000e+00 
9.9982758e+00 2.2122357e-03 0.0000000e+00 
9.9964275e+00 -8.6367334e-04 0.0000000e+00 
9.9962378e+00 7.9959945e-04 0.0000000e+00 
1.0001846e+01 5.2310445e-04 0.0000000e+00 
9.9982204e+00 2.2415156e-03 0.0000000e+00 
9.9990110e+00 2.1038018e-03 0.0000000e+00 
9.9968491e+00 -1.2233309e-03 0.0000000e+00 
9.9963131e+00 1.3288190e-03 0.0000000e+00 
1.0001967e+01 9.9462923e-04 0.0000000e+00 
9.9973202e+00 -1.4447693e-03 0.0000000e+00 
9.9983902e+00 -6.1118871e-04 0.0000000e+00 
9.9965363e+00 1.9926031e-03 0.0000000e+00 
1.0002113e+01 1.4439395e-03 0.0000000e+00 
9.9975653e+00 2.5413346e-03 0.0000000e+00 
9.9985714e+00 2.5716389e-03 0.0000000e+00 
9.9979420e+00 -1.4735924e-03 0.0000000e+00 
9.9979658e+00 2.4128568e-03 0.0000000e+00 
1.0002305e+01 1.9064117e-03 0.0000000e+00 
9.9956493e+00 -3.6341199e-04 0.0000000e+00 
9.9959249e+00 -9.9172292e-04 0.0000000e+00 
9.9955788e+00 4.2533007e-04 0.0000000e+00 
1.0001726e+01 -1.1062892e-04 0.0000000e+00 
9.9990225e+00 2.4815418e-24 0.0000000e+00 
1.0001629e+01 3.1051031e-04 0.0000000e+00 
9.9963150e+00 -1.5674124e-03 0.0000000e+00 
9.9958544e+00 1.0869034e-03 0.0000000e+00 
9.9985981e+00 -1.2864827e-03 0.0000000e+00 
9.9980373e+00 3.0407787e-03 0.0000000e+00 
1.0001472e+01 7.8149687e-04 0.0000000e+00 
9.9969168e+00 -1.9596734e-03 0.0000000e+00 
9.9966850e+00 2.8301566e-03 0.0000000e+00 
1.0002538e+01 2.3796451e-03 0.0000000e+00 
9.9955730e+00 1.9327322e-03 0.0000000e+00 
1.0001301e+01 1.2069248e-03 0.0000000e+00 
9.9976101e+00 -2.1690312e-03 0.0000000e+00 
9.9990816e+00 -8.6820283e-04 0.0000000e+00 
9.9976845e+00 2.4973121e-03 0.0000000e+00 
1.0001118e+01 1.6406763e-03 0.0000000e+00 
9.9973860e+00 3.5038895e-03 0.0000000e+00 
1.0002810e+01 2.8632670e-03 0.0000000e+00 
9.9984598e+00 -2.1280751e-03 0.0000000e+00 
9.9952612e+00 -1.1149369e-03 0.0000000e+00 
9.9948263e+00 -1.5595551e-04 0.0000000e+00 
9.9955997e+00 3.0595011e-03 0.0000000e+00 
9.9956169e+00 -1.8539510e-03 0.0000000e+00 
1.0000916e+01 2.0940749e-03 0.0000000e+00 
9.9953604e+00 6.6018518e-04 0.0000000e+00 
1.0001632e+01 6.0525024e-04 0.0000000e+00 
9.9962835e+00 -2.5147237e-03 0.0000000e+00 
1.0002012e+01 1.7368073e-04 0.0000000e+00 
9.9998646e+00 2.4815418e-24 0.0000000e+00 
9.9944096e+00 1.7220018e-03 0.0000000e+00 
1.0001600e+01 1.0761045e-03 0.0000000e+00 
9.9993353e+00 -1.8108644e-03 0.0000000e+00 
1.0003123e+01 3.3539173e-03 0.0000000e+00 
9.9971104e+00 -2.9321325e-03 0.0000000e+00 
9.9965897e+00 3.9486093e-03 0.0000000e+00 
9.9973726e+00 2.4631100e-03 0.0000000e+00 
1.0000672e+01 2.5673381e-03 0.0000000e+00 
1.0001480e+01 1.5690110e-03 0.0000000e+00 
9.9980860e+00 -3.1115594e-03 0.0000000e+00 
9.9942751e+00 3.2029641e-03 0.0000000e+00 
1.0000051e+01 -1.1973904e-03 0.0000000e+00 
1.0001226e+01 2.0786752e-03 0.0000000e+00 
1.0003471e+01 3.8441257e-03 0.0000000e+00 
1.0000362e+01 3.0592403e-03 0.0000000e+00 
9.9939766e+00 -1.0000214e-03 0.0000000e+00 
9.9948921e+00 -2.1539782e-03 0.0000000e+00 
9.9948378e+00 -3.9097927e-06 0.0000000e+00 
9.9992208e+00 -2.9703772e-03 0.0000000e+00 
9.9953470e+00 -3.0139312e-03 0.0000000e+00 
1.0000534e+01 1.2124997e-03 0.0000000e+00 
9.9930182e+00 1.3129099e-03 0.0000000e+00 
9.9956169e+00 4.3562800e-03 0.0000000e+00 
1.0000836e+01 2.6250624e-03 0.0000000e+00 
9.9991741e+00 1.3647602e-03 0.0000000e+00 
9.9963694e+00 -3.7627444e-03 0.0000000e+00 
9.9970284e+00 2.2689551e-03 0.0000000e+00 
1.0000750e+01 5.9608754e-04 0.0000000e+00 
1.0001026e+01 2.4815418e-24 0.0000000e+00 
9.9981194e+00 1.8271471e-03 0.0000000e+00 
1.0000371e+01 -2.4796848e-03 0.0000000e+00 
9.9974785e+00 -4.1943556e-03 0.0000000e+00 
9.9999580e+00 3.5659624e-03 0.0000000e+00 
9.9926682e+00 3.2253081e-03 0.0000000e+00 
1.0003854e+01 4.3212129e-03 0.0000000e+00 
1.0000288e+01 3.2180275e-03 0.0000000e+00 
9.9972029e+00 2.3949181e-03 0.0000000e+00 
9.9988070e+00 -4.3205488e-03 0.0000000e+00 
9.9944334e+00 4.7003720e-03 0.0000000e+00 
9.9962511e+00 3.0313476e-03 0.0000000e+00 
1.0001379e+01 -1.6141072e-03 0.0000000e+00 
9.9930286e+00 -2.1754417e-03 0.0000000e+00 
9.9942980e+00 -9.7061152e-04 0.0000000e+00 
9.9945669e+00 -3.5514815e-03 0.0000000e+00 
9.9913664e+00 6.4562011e-04 0.0000000e+00 
9.9994249e+00 4.0798821e-03 0.0000000e+00 
9.9995422e+00 3.8627237e-03 0.0000000e+00 
9.9951468e+00 -4.5422637e-03 0.0000000e+00 
1.0000296e+01 -4.0409267e-03 0.0000000e+00 
1.0003737e+01 1.2111646e-03 0.0000000e+00 
9.9966526e+00 1.8620412e-03 0.0000000e+00 
1.0004194e+01 1.7971337e-03 0.0000000e+00 
1.0004263e+01 4.7659413e-03 0.0000000e+00 
9.9951792e+00 3.7472271e-03 0.0000000e+00 
9.9966192e+00 -5.3800978e-03 0.0000000e+00 
9.9907360e+00 3.0805201e-03 0.0000000e+00 
1.0004565e+01 2.3489830e-03 0.0000000e+00 
1.0001638e+01 -2.5620311e-04 0.0000000e+00 
1.0002593e+01 -4.1359031e-25 0.0000000e+00 
9.9980803e+00 -5.8103963e-03 0.0000000e+00 
1.0001786e+01 -3.3233564e-03 0.0000000e+00 
9.9985447e+00 4.5610582e-03 0.0000000e+00 
9.9929962e+00 4.9445666e-03 0.0000000e+00 
1.0004926e+01 2.9779908e-03 0.0000000e+00 
9.9987268e+00 4.5882477e-03 0.0000000e+00 
9.9939346e+00 4.5536729e-03 0.0000000e+00 
9.9998465e+00 -5.8532231e-03 0.0000000e+00 
9.9937572e+00 -2.3201576e-03 0.0000000e+00 
9.9919872e+00 -3.7659060e-03 0.0000000e+00 
9.9894218e+00 -3.5444918e-04 0.0000000e+00 
1.0004690e+01 5.1508425e-03 0.0000000e+00 
9.9943190e+00 -5.3932620e-03 0.0000000e+00 
1.0005306e+01 3.7056755e-03 0.0000000e+00 
1.0002590e+01 5.8072293e-04 0.0000000e+00 
1.0003155e+01 -2.1364067e-03 0.0000000e+00 
9.9962425e+00 1.1757076e-03 0.0000000e+00 
1.0002597e+01 1.3619808e-03 0.0000000e+00 
9.9950552e+00 -6.5237880e-03 0.0000000e+00 
9.9972305e+00 5.3111557e-03 0.0000000e+00 
9.9924679e+00 5.4608523e-03 0.0000000e+00 
9.9884310e+00 2.7095168e-03 0.0000000e+00 
1.0001771e+01 -5.3875041e-03 0.0000000e+00 
1.0003221e+01 1.8243162e-03 0.0000000e+00 
9.9978209e+00 5.0716274e-03 0.0000000e+00 
9.9970932e+00 -7.4487012e-03 0.0000000e+00 
1.0005719e+01 4.5373999e-03 0.0000000e+00 
9.9912605e+00 5.0404612e-03 0.0000000e+00 
1.0003983e+01 2.2990990e-03 0.0000000e+00 
1.0013710e+01 1.1408587e-03 0.0000000e+00 
1.0004667e+01 -4.1359031e-25 0.0000000e+00 
9.9989882e+00 -7.8562768e-03 0.0000000e+00 
1.0003679e+01 -4.3776422e-03 0.0000000e+00 
9.9907274e+00 6.4770668e-03 0.0000000e+00 
1.0005120e+01 5.4381713e-03 0.0000000e+00 
1.0005034e+01 2.8416044e-03 0.0000000e+00 
9.9955206e+00 6.1061243e-03 0.0000000e+00 
1.0006173e+01 5.4850904e-03 0.0000000e+00 
9.9932384e+00 -4.1505187e-03 0.0000000e+00 
9.9871550e+00 -1.7794359e-03 0.0000000e+00 
9.9908609e+00 -5.8728727e-03 0.0000000e+00 
9.9958000e+00 1.2668026e-04 0.0000000e+00 
1.0018255e+01 1.7024996e-04 0.0000000e+00 
1.0001295e+01 -7.7771121e-03 0.0000000e+00 
9.9941931e+00 -7.7824844e-03 0.0000000e+00 
9.9966555e+00 5.5020642e-03 0.0000000e+00 
9.9857054e+00 2.0374460e-03 0.0000000e+00 
1.0006446e+01 3.4607009e-03 0.0000000e+00 
1.0022532e+01 -3.9550295e-04 0.0000000e+00 
1.0005491e+01 -2.7854070e-03 0.0000000e+00 
9.9951239e+00 -9.0598566e-03 0.0000000e+00 
9.9891729e+00 4.9248473e-03 0.0000000e+00 
9.9886570e+00 7.6075639e-03 0.0000000e+00 
1.0006674e+01 6.5609552e-03 0.0000000e+00 
1.0026733e+01 -4.0892532e-04 0.0000000e+00 
1.0003751e+01 -7.0662103e-03 0.0000000e+00 
9.9978657e+00 -1.0065767e-02 0.0000000e+00 
9.9933205e+00 6.9323867e-03 0.0000000e+00 
1.0008268e+01 4.1651251e-03 0.0000000e+00 
1.0005537e+01 5.5774474e-03 0.0000000e+00 
1.0031435e+01 -3.4865155e-04 0.0000000e+00 
1.0002519e+01 -1.4726209e-03 0.0000000e+00 
1.0007373e+01 6.2038546e-24 0.0000000e+00 
1.0000293e+01 -1.0421682e-02 0.0000000e+00 
1.0006170e+01 -5.6843231e-03 0.0000000e+00 
9.9951725e+00 5.8408584e-03 0.0000000e+00 
9.9845352e+00 -3.7423009e-03 0.0000000e+00 
1.0007221e+01 7.7753928e-03 0.0000000e+00 
9.9927731e+00 -6.5805446e-03 0.0000000e+00 
1.0036834e+01 -3.1074026e-04 0.0000000e+00 
9.9953270e+00 -1.3881556e-03 0.0000000e+00 
9.9861898e+00 8.8530127e-03 0.0000000e+00 
9.9896669e+00 -8.6186072e-03 0.0000000e+00 
1.0010559e+01 4.9639135e-03 0.0000000e+00 
1.0000456e+01 -2.2320286e-03 0.0000000e+00 
9.9825096e+00 9.7053044e-04 0.0000000e+00 
9.9982376e+00 -2.0883619e-03 0.0000000e+00 
1.0003261e+01 -1.0171412e-02 0.0000000e+00 
9.9942484e+00 -1.0842465e-02 0.0000000e+00 
9.9866762e+00 4.5165075e-03 0.0000000e+00 
9.9905224e+00 7.7675884e-03 0.0000000e+00 
9.9965391e+00 -2.1849524e-03 0.0000000e+00 
1.0043079e+01 -2.7565935e-04 0.0000000e+00 
9.9954185e+00 -1.2270867e-02 0.0000000e+00 
1.0008521e+01 -3.5856522e-03 0.0000000e+00 
1.0005915e+01 5.5025183e-03 0.0000000e+00 
9.9954901e+00 -2.5426643e-03 0.0000000e+00 
1.0007817e+01 9.1354800e-03 0.0000000e+00 
1.0013384e+01 5.8651431e-03 0.0000000e+00 
1.0006362e+01 -9.1424827e-03 0.0000000e+00 
9.9990301e+00 -1.3345982e-02 0.0000000e+00 
9.9832525e+00 1.0207590e-02 0.0000000e+00 
9.9933052e+00 6.0359281e-03 0.0000000e+00 
1.0050303e+01 -2.3536680e-04 0.0000000e+00 
9.9947109e+00 -2.9609052e-03 0.0000000e+00 
9.9928532e+00 -1.9781000e-04 0.0000000e+00 
1.0010857e+01 6.2038546e-24 0.0000000e+00 
9.9815350e+00 -6.3806116e-03 0.0000000e+00 
9.9948282e+00 -3.4955302e-03 0.0000000e+00 
1.0002105e+01 -1.3611768e-02 0.0000000e+00 
9.9924030e+00 -9.7535830e-03 0.0000000e+00 
9.9787941e+00 -6.0761219e-04 0.0000000e+00 
1.0009401e+01 -7.2918748e-03 0.0000000e+00 
9.9870005e+00 8.5780481e-03 0.0000000e+00 
9.9940643e+00 -3.4404607e-03 0.0000000e+00 
9.9888878e+00 2.3784305e-04 0.0000000e+00 
9.9884300e+00 -1.2149635e-02 0.0000000e+00 
1.0016815e+01 6.8747946e-03 0.0000000e+00 
9.9837065e+00 3.7124578e-03 0.0000000e+00 
1.0008461e+01 1.0643291e-02 0.0000000e+00 
1.0058634e+01 -1.8451885e-04 0.0000000e+00 
9.9861126e+00 3.8191982e-04 0.0000000e+00 
9.9945574e+00 -1.4719800e-02 0.0000000e+00 
1.0005876e+01 -1.3128391e-02 0.0000000e+00 
1.0006223e+01 5.1280856e-03 0.0000000e+00 
9.9826117e+00 3.7327450e-04 0.0000000e+00 
9.9797602e+00 1.1656604e-02 0.0000000e+00 
9.9935112e+00 -3.9839800e-03 0.0000000e+00 
9.9960241e+00 -1.6299037e-02 0.0000000e+00 
1.0012404e+01 -4.5654611e-03 0.0000000e+00 
9.9909792e+00 6.0186726e-03 0.0000000e+00 
9.9781542e+00 4.1137842e-04 0.0000000e+00 
1.0020932e+01 7.9954723e-03 0.0000000e+00 
1.0068193e+01 -1.1859251e-04 0.0000000e+00 
1.0009755e+01 -1.1692108e-02 0.0000000e+00 
1.0000700e+01 -1.7423838e-02 0.0000000e+00 
9.9826107e+00 9.3157012e-03 0.0000000e+00 
1.0009151e+01 1.2293852e-02 0.0000000e+00 
9.9930525e+00 -4.5933505e-03 0.0000000e+00 
9.9727106e+00 4.7050268e-04 0.0000000e+00 
9.9943085e+00 -6.3501932e-03 0.0000000e+00 
9.9781342e+00 -9.8609058e-03 0.0000000e+00 
9.9745150e+00 -2.8402552e-03 0.0000000e+00 
9.9921827e+00 -1.3841612e-02 0.0000000e+00 
1.0002955e+01 2.0620504e-03 0.0000000e+00 
9.9801960e+00 2.3835653e-03 0.0000000e+00 
1.0004558e+01 -1.7549029e-02 0.0000000e+00 
1.0003304e+01 1.4540887e-03 0.0000000e+00 
1.0015294e+01 6.2038546e-24 0.0000000e+00 
1.0002872e+01 1.8484199e-03 0.0000000e+00 
9.9871931e+00 -1.6640635e-02 0.0000000e+00 
9.9756165e+00 1.3173629e-02 0.0000000e+00 
1.0013542e+01 -9.2561059e-03 0.0000000e+00 
1.0006419e+01 4.3455921e-03 0.0000000e+00 
9.9661970e+00 5.4322946e-04 0.0000000e+00 
1.0079107e+01 -3.3592754e-05 0.0000000e+00 
1.0003030e+01 2.0566550e-03 0.0000000e+00 
1.0025816e+01 9.2248572e-03 0.0000000e+00 
9.9927034e+00 -5.2692425e-03 0.0000000e+00 
9.9952145e+00 -1.9587815e-02 0.0000000e+00 
9.9881096e+00 5.7002800e-03 0.0000000e+00 
1.0009299e+01 -1.6754780e-02 0.0000000e+00 
1.0003571e+01 2.4038099e-03 0.0000000e+00 
1.0009882e+01 1.4072645e-02 0.0000000e+00 
9.9970465e+00 -2.1311395e-02 0.0000000e+00 
9.9584866e+00 6.2802853e-04 0.0000000e+00 
9.9771919e+00 9.9144801e-03 0.0000000e+00 
1.0017330e+01 -5.7572392e-03 0.0000000e+00 
1.0004466e+01 2.7981647e-03 0.0000000e+00 
1.0091493e+01 7.3646937e-05 0.0000000e+00 
9.9924936e+00 -6.0107289e-03 0.0000000e+00 
1.0003016e+01 -2.2456044e-02 0.0000000e+00 
1.0014112e+01 -1.4802162e-02 0.0000000e+00 
9.9937792e+00 -1.0140052e-02 0.0000000e+00 
9.9696312e+00 -5.9025539e-03 0.0000000e+00 
9.9707117e+00 1.4717057e-02 0.0000000e+00 
9.9743223e+00 -1.4383712e-02 0.0000000e+00 
1.0031547e+01 1.0553817e-02 0.0000000e+00 
1.0005720e+01 3.2476203e-03 0.0000000e+00 
9.9760714e+00 3.6943241e-04 0.0000000e+00 
9.9494305e+00 7.2489021e-04 0.0000000e+00 
9.9921837e+00 -1.9049944e-02 0.0000000e+00 
1.0017069e+01 -1.9250353e-04 0.0000000e+00 
1.0006454e+01 3.0183729e-03 0.0000000e+00 
1.0020258e+01 -2.3611532e-05 0.0000000e+00 
1.0007817e+01 -2.2375133e-02 0.0000000e+00 