# vtk DataFile Version 4.0
vtk output
ASCII
DATASET UNSTRUCTURED_GRID
POINTS 3806 float
2.0000000e+01 1.0000000e+01 0.0000000e+00 
1.9750000e+01 1.0000000e+01 0.0000000e+00 
2.0000000e+01 9.7500000e+00 0.0000000e+00 
1.9625000e+01 9.7427902e+00 0.0000000e+00 
2.0000000e+01 9.5000000e+00 0.0000000e+00 
1.9500000e+01 1.0000000e+01 0.0000000e+00 
1.9750000e+01 9.5262804e+00 0.0000000e+00 
1.9375000e+01 9.7427902e+00 0.0000000e+00 
1.9500000e+01 9.5262804e+00 0.0000000e+00 
1.9250000e+01 1.0000000e+01 0.0000000e+00 
2.0000000e+01 9.2500000e+00 0.0000000e+00 
1.9645800e+01 9.2998104e+00 0.0000000e+00 
1.9250000e+01 9.5262804e+00 0.0000000e+00 
1.9125000e+01 9.7427902e+00 0.0000000e+00 
1.9375000e+01 9.3097696e+00 0.0000000e+00 
1.9750000e+01 9.0932703e+00 0.0000000e+00 
2.0000000e+01 9.0000000e+00 0.0000000e+00 
1.9000000e+01 1.0000000e+01 0.0000000e+00 
1.9500000e+01 9.0932703e+00 0.0000000e+00 
1.9000000e+01 9.5262804e+00 0.0000000e+00 
1.9125000e+01 9.3097696e+00 0.0000000e+00 
1.8875000e+01 9.7427902e+00 0.0000000e+00 
1.9696400e+01 8.8762598e+00 0.0000000e+00 
1.9250000e+01 9.0932703e+00 0.0000000e+00 
2.0000000e+01 8.7500000e+00 0.0000000e+00 
1.8750000e+01 1.0000000e+01 0.0000000e+00 
1.9375000e+01 8.8767595e+00 0.0000000e+00 
1.8875000e+01 9.3097696e+00 0.0000000e+00 
1.8750000e+01 9.5262804e+00 0.0000000e+00 
1.9000000e+01 9.0932703e+00 0.0000000e+00 
1.9750000e+01 8.6602497e+00 0.0000000e+00 
1.8625000e+01 9.7427902e+00 0.0000000e+00 
1.9125000e+01 8.8767595e+00 0.0000000e+00 
1.9500000e+01 8.6602497e+00 0.0000000e+00 
2.0000000e+01 8.5000000e+00 0.0000000e+00 
1.8500000e+01 1.0000000e+01 0.0000000e+00 
1.9250000e+01 8.6602497e+00 0.0000000e+00 
1.8625000e+01 9.3097696e+00 0.0000000e+00 
1.8750000e+01 9.0932703e+00 0.0000000e+00 
1.8500000e+01 9.5262804e+00 0.0000000e+00 
1.9645800e+01 8.4531202e+00 0.0000000e+00 
1.8875000e+01 8.8767595e+00 0.0000000e+00 
1.8375000e+01 9.7427902e+00 0.0000000e+00 
1.9000000e+01 8.6602497e+00 0.0000000e+00 
1.9375000e+01 8.4437504e+00 0.0000000e+00 
2.0000000e+01 8.2500000e+00 0.0000000e+00 
1.8250000e+01 1.0000000e+01 0.0000000e+00 
1.8500000e+01 9.0932703e+00 0.0000000e+00 
1.8375000e+01 9.3097696e+00 0.0000000e+00 
1.8625000e+01 8.8767595e+00 0.0000000e+00 
1.9125000e+01 8.4437504e+00 0.0000000e+00 
1.9750000e+01 8.2272396e+00 0.0000000e+00 
1.8250000e+01 9.5262804e+00 0.0000000e+00 
1.8750000e+01 8.6602497e+00 0.0000000e+00 
1.9500000e+01 8.2272396e+00 0.0000000e+00 
1.8125000e+01 9.7427902e+00 0.0000000e+00 
1.8875000e+01 8.4437504e+00 0.0000000e+00 
1.9250000e+01 8.2272396e+00 0.0000000e+00 
1.8250000e+01 9.0932703e+00 0.0000000e+00 
1.8375000e+01 8.8767595e+00 0.0000000e+00 
1.8125000e+01 9.3097696e+00 0.0000000e+00 
2.0000000e+01 8.0000000e+00 0.0000000e+00 
1.8000000e+01 1.0000000e+01 0.0000000e+00 
1.8500000e+01 8.6602497e+00 0.0000000e+00 
1.9625000e+01 8.0107298e+00 0.0000000e+00 
1.9000000e+01 8.2272396e+00 0.0000000e+00 
1.8000000e+01 9.5262804e+00 0.0000000e+00 
1.8625000e+01 8.4437504e+00 0.0000000e+00 
1.9375000e+01 8.0107298e+00 0.0000000e+00 
1.7875000e+01 9.7834902e+00 0.0000000e+00 
1.8750000e+01 8.2272396e+00 0.0000000e+00 
1.9125000e+01 8.0107298e+00 0.0000000e+00 
1.8125000e+01 8.8767595e+00 0.0000000e+00 
1.8000000e+01 9.0932703e+00 0.0000000e+00 
1.8250000e+01 8.6602497e+00 0.0000000e+00 
1.9750000e+01 7.7942300e+00 0.0000000e+00 
1.7875000e+01 9.3097696e+00 0.0000000e+00 
2.0000000e+01 7.7500000e+00 0.0000000e+00 
1.7750000e+01 1.0000000e+01 0.0000000e+00 
1.8375000e+01 8.4437504e+00 0.0000000e+00 
1.9500000e+01 7.7942300e+00 0.0000000e+00 
1.8875000e+01 8.0107298e+00 0.0000000e+00 
1.7750000e+01 9.5262804e+00 0.0000000e+00 
1.8500000e+01 8.2272396e+00 0.0000000e+00 
1.9250000e+01 7.7942300e+00 0.0000000e+00 
1.7625000e+01 9.7834902e+00 0.0000000e+00 
1.7875000e+01 8.8767595e+00 0.0000000e+00 
1.8000000e+01 8.6602497e+00 0.0000000e+00 
1.8625000e+01 8.0107298e+00 0.0000000e+00 
1.9000000e+01 7.7942300e+00 0.0000000e+00 
1.7750000e+01 9.0932703e+00 0.0000000e+00 
1.8125000e+01 8.4437504e+00 0.0000000e+00 
1.9645800e+01 7.5647702e+00 0.0000000e+00 
1.7625000e+01 9.3097696e+00 0.0000000e+00 
1.8250000e+01 8.2272396e+00 0.0000000e+00 
2.0000000e+01 7.5000000e+00 0.0000000e+00 
1.7500000e+01 1.0000000e+01 0.0000000e+00 
1.9375000e+01 7.5777202e+00 0.0000000e+00 
1.8750000e+01 7.7942300e+00 0.0000000e+00 
1.7500000e+01 9.5262804e+00 0.0000000e+00 
1.8375000e+01 8.0107298e+00 0.0000000e+00 
1.9125000e+01 7.5777202e+00 0.0000000e+00 
1.7750000e+01 8.6602497e+00 0.0000000e+00 
1.7625000e+01 8.8767595e+00 0.0000000e+00 
1.7875000e+01 8.4437504e+00 0.0000000e+00 
1.7375000e+01 9.7427902e+00 0.0000000e+00 
1.9768499e+01 7.3630099e+00 0.0000000e+00 
1.7500000e+01 9.0932703e+00 0.0000000e+00 
1.8500000e+01 7.7942300e+00 0.0000000e+00 
1.8875000e+01 7.5777202e+00 0.0000000e+00 
1.8000000e+01 8.2272396e+00 0.0000000e+00 
1.9500000e+01 7.3612199e+00 0.0000000e+00 
1.7375000e+01 9.3097696e+00 0.0000000e+00 
1.8125000e+01 8.0107298e+00 0.0000000e+00 
1.9250000e+01 7.3612199e+00 0.0000000e+00 
2.0000000e+01 7.2500000e+00 0.0000000e+00 
1.7250000e+01 1.0000000e+01 0.0000000e+00 
1.8625000e+01 7.5777202e+00 0.0000000e+00 
1.7250000e+01 9.5262804e+00 0.0000000e+00 
1.8250000e+01 7.7942300e+00 0.0000000e+00 
1.9000000e+01 7.3612199e+00 0.0000000e+00 
1.7500000e+01 8.6602497e+00 0.0000000e+00 
1.7625000e+01 8.4437504e+00 0.0000000e+00 
1.7375000e+01 8.8767595e+00 0.0000000e+00 
1.7750000e+01 8.2272396e+00 0.0000000e+00 
1.9696400e+01 7.1390800e+00 0.0000000e+00 
1.7125000e+01 9.7427902e+00 0.0000000e+00 
1.7250000e+01 9.0932703e+00 0.0000000e+00 
1.7875000e+01 8.0107298e+00 0.0000000e+00 
1.8375000e+01 7.5777202e+00 0.0000000e+00 
1.8750000e+01 7.3612199e+00 0.0000000e+00 
1.9375000e+01 7.1447101e+00 0.0000000e+00 
1.7125000e+01 9.3097696e+00 0.0000000e+00 
1.8000000e+01 7.7942300e+00 0.0000000e+00 
1.9125000e+01 7.1447101e+00 0.0000000e+00 
2.0000000e+01 7.0000000e+00 0.0000000e+00 
1.7000000e+01 1.0000000e+01 0.0000000e+00 
1.8500000e+01 7.3612199e+00 0.0000000e+00 
1.7000000e+01 9.5262804e+00 0.0000000e+00 
1.7375000e+01 8.4437504e+00 0.0000000e+00 
1.7250000e+01 8.6602497e+00 0.0000000e+00 
1.8125000e+01 7.5777202e+00 0.0000000e+00 
1.7500000e+01 8.2272396e+00 0.0000000e+00 
1.8875000e+01 7.1447101e+00 0.0000000e+00 
1.9750000e+01 6.9281998e+00 0.0000000e+00 
1.7125000e+01 8.8767595e+00 0.0000000e+00 
1.7625000e+01 8.0107298e+00 0.0000000e+00 
1.9500000e+01 6.9281998e+00 0.0000000e+00 
1.7000000e+01 9.0932703e+00 0.0000000e+00 
1.6875000e+01 9.7427902e+00 0.0000000e+00 
1.7750000e+01 7.7942300e+00 0.0000000e+00 
1.9250000e+01 6.9281998e+00 0.0000000e+00 
1.8250000e+01 7.3612199e+00 0.0000000e+00 
1.8625000e+01 7.1447101e+00 0.0000000e+00 
1.6875000e+01 9.3097696e+00 0.0000000e+00 
1.7875000e+01 7.5777202e+00 0.0000000e+00 
1.9000000e+01 6.9281998e+00 0.0000000e+00 
2.0000000e+01 6.7500000e+00 0.0000000e+00 
1.6750000e+01 1.0000000e+01 0.0000000e+00 
1.7125000e+01 8.4437504e+00 0.0000000e+00 
1.7250000e+01 8.2272396e+00 0.0000000e+00 
1.6750000e+01 9.5262804e+00 0.0000000e+00 
1.8375000e+01 7.1447101e+00 0.0000000e+00 
1.7000000e+01 8.6602497e+00 0.0000000e+00 
1.7375000e+01 8.0107298e+00 0.0000000e+00 
1.9645800e+01 6.7180800e+00 0.0000000e+00 
1.8000000e+01 7.3612199e+00 0.0000000e+00 
1.8750000e+01 6.9281998e+00 0.0000000e+00 
1.6875000e+01 8.8767595e+00 0.0000000e+00 
1.7500000e+01 7.7942300e+00 0.0000000e+00 
1.9375000e+01 6.7117000e+00 0.0000000e+00 
1.6750000e+01 9.0932703e+00 0.0000000e+00 
1.6625000e+01 9.7427902e+00 0.0000000e+00 
1.7625000e+01 7.5777202e+00 0.0000000e+00 
1.9125000e+01 6.7117000e+00 0.0000000e+00 
1.8125000e+01 7.1447101e+00 0.0000000e+00 
1.8500000e+01 6.9281998e+00 0.0000000e+00 
1.6625000e+01 9.3097696e+00 0.0000000e+00 
1.7750000e+01 7.3612199e+00 0.0000000e+00 
1.8875000e+01 6.7117000e+00 0.0000000e+00 
1.7000000e+01 8.2272396e+00 0.0000000e+00 
1.6875000e+01 8.4437504e+00 0.0000000e+00 
1.7125000e+01 8.0107298e+00 0.0000000e+00 
2.0000000e+01 6.5000000e+00 0.0000000e+00 
1.6500000e+01 1.0000000e+01 0.0000000e+00 
1.9750000e+01 6.4951901e+00 0.0000000e+00 
1.6750000e+01 8.6602497e+00 0.0000000e+00 
1.7250000e+01 7.7942300e+00 0.0000000e+00 
1.6500000e+01 9.5262804e+00 0.0000000e+00 
1.8250000e+01 6.9281998e+00 0.0000000e+00 
1.9500000e+01 6.4951901e+00 0.0000000e+00 
1.6625000e+01 8.8767595e+00 0.0000000e+00 
1.7875000e+01 7.1447101e+00 0.0000000e+00 
1.8625000e+01 6.7117000e+00 0.0000000e+00 
1.7375000e+01 7.5777202e+00 0.0000000e+00 
1.9250000e+01 6.4951901e+00 0.0000000e+00 
1.6500000e+01 9.0932703e+00 0.0000000e+00 
1.6375000e+01 9.7427902e+00 0.0000000e+00 
1.7500000e+01 7.3612199e+00 0.0000000e+00 
1.9000000e+01 6.4951901e+00 0.0000000e+00 
1.8000000e+01 6.9281998e+00 0.0000000e+00 
1.8375000e+01 6.7117000e+00 0.0000000e+00 
1.6375000e+01 9.3097696e+00 0.0000000e+00 
1.6750000e+01 8.2272396e+00 0.0000000e+00 
1.6875000e+01 8.0107298e+00 0.0000000e+00 
1.7625000e+01 7.1447101e+00 0.0000000e+00 
1.6625000e+01 8.4437504e+00 0.0000000e+00 
1.8750000e+01 6.4951901e+00 0.0000000e+00 
1.7000000e+01 7.7942300e+00 0.0000000e+00 
1.9625000e+01 6.2786798e+00 0.0000000e+00 
1.6500000e+01 8.6602497e+00 0.0000000e+00 
2.0000000e+01 6.2500000e+00 0.0000000e+00 
1.6250000e+01 1.0000000e+01 0.0000000e+00 
1.7125000e+01 7.5777202e+00 0.0000000e+00 
1.9375000e+01 6.2786798e+00 0.0000000e+00 
1.6250000e+01 9.5262804e+00 0.0000000e+00 
1.8125000e+01 6.7117000e+00 0.0000000e+00 
1.6375000e+01 8.8767595e+00 0.0000000e+00 
1.7750000e+01 6.9281998e+00 0.0000000e+00 
1.7250000e+01 7.3612199e+00 0.0000000e+00 
1.8500000e+01 6.4951901e+00 0.0000000e+00 
1.9125000e+01 6.2786798e+00 0.0000000e+00 
1.6250000e+01 9.0932703e+00 0.0000000e+00 
1.7375000e+01 7.1447101e+00 0.0000000e+00 
1.6125000e+01 9.7427902e+00 0.0000000e+00 
[...]
POINT_DATA 3806
FIELD FieldData 2
VELOCITY 3 3806  float
1.0000521e+01 9.4350289e-25 0.0000000e+00 
1.0000697e+01 -1.4992649e-24 0.0000000e+00 
1.0000504e+01 -1.7083358e-04 0.0000000e+00 
1.0000774e+01 -1.9980180e-04 0.0000000e+00 
1.0000492e+01 -3.3924967e-04 0.0000000e+00 
1.0000894e+01 -4.1359031e-25 0.0000000e+00 
1.0000662e+01 -3.4838507e-04 0.0000000e+00 
1.0000977e+01 -2.2284231e-04 0.0000000e+00 
1.0000851e+01 -3.8415313e-04 0.0000000e+00 
1.0001113e+01 -4.1359031e-25 0.0000000e+00 
1.0000459e+01 -4.9523829e-04 0.0000000e+00 
1.0000700e+01 -5.2467181e-04 0.0000000e+00 
1.0001060e+01 -4.2939227e-04 0.0000000e+00 
1.0001204e+01 -2.5075660e-04 0.0000000e+00 
1.0000903e+01 -5.8113411e-04 0.0000000e+00 
1.0000583e+01 -6.3906267e-04 0.0000000e+00 
1.0000417e+01 -6.4473407e-04 0.0000000e+00 
1.0001359e+01 -2.0679515e-25 0.0000000e+00 
1.0000748e+01 -7.0724171e-04 0.0000000e+00 
1.0001294e+01 -4.8545780e-04 0.0000000e+00 
1.0001112e+01 -6.5389497e-04 0.0000000e+00 
1.0001459e+01 -2.8478549e-04 0.0000000e+00 
1.0000558e+01 -7.8302284e-04 0.0000000e+00 
1.0000932e+01 -7.9031650e-04 0.0000000e+00 
1.0000365e+01 -7.7606912e-04 0.0000000e+00 
1.0001637e+01 -2.0679515e-25 0.0000000e+00 
1.0000758e+01 -8.9682761e-04 0.0000000e+00 
1.0001348e+01 -7.4255554e-04 0.0000000e+00 
1.0001560e+01 -5.5343792e-04 0.0000000e+00 
1.0001139e+01 -8.9351705e-04 0.0000000e+00 
1.0000462e+01 -8.8499376e-04 0.0000000e+00 
1.0001751e+01 -3.2575626e-04 0.0000000e+00 
1.0000934e+01 -1.0096707e-03 0.0000000e+00 
1.0000593e+01 -9.7781001e-04 0.0000000e+00 
1.0000304e+01 -8.8320003e-04 0.0000000e+00 
1.0001957e+01 -2.0679515e-25 0.0000000e+00 
1.0000738e+01 -1.0933706e-03 0.0000000e+00 
1.0001616e+01 -8.4942632e-04 0.0000000e+00 
1.0001372e+01 -1.0186642e-03 0.0000000e+00 
1.0001864e+01 -6.3512038e-04 0.0000000e+00 
1.0000436e+01 -1.0179515e-03 0.0000000e+00 
1.0001132e+01 -1.1464994e-03 0.0000000e+00 
1.0002087e+01 -3.7443367e-04 0.0000000e+00 
1.0000901e+01 -1.2360737e-03 0.0000000e+00 
1.0000558e+01 -1.1478869e-03 0.0000000e+00 
1.0000235e+01 -9.8195288e-04 0.0000000e+00 
1.0002323e+01 4.1359031e-25 0.0000000e+00 
1.0001640e+01 -1.1687925e-03 0.0000000e+00 
1.0001925e+01 -9.7712048e-04 0.0000000e+00 
1.0001358e+01 -1.3115279e-03 0.0000000e+00 
1.0000688e+01 -1.2914520e-03 0.0000000e+00 
1.0000307e+01 -1.0673857e-03 0.0000000e+00 
1.0002215e+01 -7.3245651e-04 0.0000000e+00 
1.0001087e+01 -1.4091814e-03 0.0000000e+00 
1.0000394e+01 -1.1772254e-03 0.0000000e+00 
1.0002474e+01 -4.3143361e-04 0.0000000e+00 
1.0000834e+01 -1.4665525e-03 0.0000000e+00 
1.0000490e+01 -1.3162517e-03 0.0000000e+00 
1.0001949e+01 -1.3477294e-03 0.0000000e+00 
1.0001618e+01 -1.5087869e-03 0.0000000e+00 
1.0002281e+01 -1.1287659e-03 0.0000000e+00 
1.0000161e+01 -1.0401231e-03 0.0000000e+00 
1.0002745e+01 4.1359031e-25 0.0000000e+00 
1.0001299e+01 -1.6169306e-03 0.0000000e+00 
1.0000254e+01 -1.1800417e-03 0.0000000e+00 
1.0000598e+01 -1.4880220e-03 0.0000000e+00 
1.0002621e+01 -8.4956369e-04 0.0000000e+00 
1.0001000e+01 -1.6777283e-03 0.0000000e+00 
1.0000319e+01 -1.3144218e-03 0.0000000e+00 
1.0002932e+01 -4.2236588e-04 0.0000000e+00 
1.0000721e+01 -1.6964446e-03 0.0000000e+00 
1.0000392e+01 -1.4785824e-03 0.0000000e+00 
1.0001918e+01 -1.7430736e-03 0.0000000e+00 
1.0002305e+01 -1.5595059e-03 0.0000000e+00 
1.0001543e+01 -1.8643873e-03 0.0000000e+00 
1.0000127e+01 -1.1695676e-03 0.0000000e+00 
1.0002694e+01 -1.3079348e-03 0.0000000e+00 
1.0000083e+01 -1.0879624e-03 0.0000000e+00 
1.0003239e+01 -1.3441685e-24 0.0000000e+00 
1.0001191e+01 -1.9301519e-03 0.0000000e+00 
1.0000163e+01 -1.2900874e-03 0.0000000e+00 
1.0000475e+01 -1.6791772e-03 0.0000000e+00 
1.0003089e+01 -9.8377455e-04 0.0000000e+00 
1.0000862e+01 -1.9466088e-03 0.0000000e+00 
1.0000204e+01 -1.4424456e-03 0.0000000e+00 
1.0003452e+01 -4.9313001e-04 0.0000000e+00 
1.0002264e+01 -2.0201597e-03 0.0000000e+00 
1.0001825e+01 -2.1576262e-03 0.0000000e+00 
1.0000570e+01 -1.9210975e-03 0.0000000e+00 
1.0000249e+01 -1.6307815e-03 0.0000000e+00 
1.0002718e+01 -1.8095133e-03 0.0000000e+00 
1.0001412e+01 -2.2300121e-03 0.0000000e+00 
1.0000040e+01 -1.2328943e-03 0.0000000e+00 
1.0003173e+01 -1.5198390e-03 0.0000000e+00 
1.0001024e+01 -2.2446471e-03 0.0000000e+00 
1.0000004e+01 -1.0933825e-03 0.0000000e+00 
1.0003813e+01 -2.0679515e-24 0.0000000e+00 
1.0000057e+01 -1.3839249e-03 0.0000000e+00 
1.0000300e+01 -1.8593025e-03 0.0000000e+00 
1.0003632e+01 -1.1411463e-03 0.0000000e+00 
1.0000679e+01 -2.2102920e-03 0.0000000e+00 
1.0000069e+01 -1.5572056e-03 0.0000000e+00 
1.0002152e+01 -2.5038321e-03 0.0000000e+00 
1.0002666e+01 -2.3467434e-03 0.0000000e+00 
1.0001668e+01 -2.5846474e-03 0.0000000e+00 
1.0004042e+01 -6.7874696e-04 0.0000000e+00 
9.9999418e+00 -1.1749757e-03 0.0000000e+00 
1.0003198e+01 -2.1041606e-03 0.0000000e+00 
1.0000359e+01 -2.1336102e-03 0.0000000e+00 
1.0000083e+01 -1.7685717e-03 0.0000000e+00 
1.0001211e+01 -2.5978673e-03 0.0000000e+00 
9.9999218e+00 -1.3078176e-03 0.0000000e+00 
1.0003730e+01 -1.7685544e-03 0.0000000e+00 
1.0000805e+01 -2.5538665e-03 0.0000000e+00 
9.9999037e+00 -1.4628110e-03 0.0000000e+00 
9.9999208e+00 -1.0843223e-03 0.0000000e+00 
1.0004476e+01 -2.0679515e-24 0.0000000e+00 
1.0000099e+01 -2.0234978e-03 0.0000000e+00 
1.0004265e+01 -1.3307953e-03 0.0000000e+00 
1.0000426e+01 -2.4604432e-03 0.0000000e+00 
9.9998827e+00 -1.6540068e-03 0.0000000e+00 
1.0002533e+01 -2.9114378e-03 0.0000000e+00 
1.0001965e+01 -3.0027467e-03 0.0000000e+00 
1.0003135e+01 -2.7308515e-03 0.0000000e+00 
1.0001428e+01 -3.0149266e-03 0.0000000e+00 
9.9998417e+00 -1.1782818e-03 0.0000000e+00 
1.0004745e+01 -7.9025741e-04 0.0000000e+00 
1.0003756e+01 -2.4501020e-03 0.0000000e+00 
1.0000951e+01 -2.9602614e-03 0.0000000e+00 
1.0000118e+01 -2.3282720e-03 0.0000000e+00 
9.9998579e+00 -1.8859715e-03 0.0000000e+00 
9.9997873e+00 -1.3510776e-03 0.0000000e+00 
1.0004377e+01 -2.0601936e-03 0.0000000e+00 
1.0000504e+01 -2.8478354e-03 0.0000000e+00 
9.9997368e+00 -1.5213330e-03 0.0000000e+00 
9.9998455e+00 -1.0464037e-03 0.0000000e+00 
1.0005247e+01 3.3087225e-24 0.0000000e+00 
9.9998302e+00 -2.1644079e-03 0.0000000e+00 
1.0005003e+01 -1.5511572e-03 0.0000000e+00 
1.0002309e+01 -3.4945302e-03 0.0000000e+00 
1.0002975e+01 -3.3904156e-03 0.0000000e+00 
1.0000141e+01 -2.6904030e-03 0.0000000e+00 
1.0001680e+01 -3.5060460e-03 0.0000000e+00 
9.9996805e+00 -1.7278122e-03 0.0000000e+00 
9.9997597e+00 -1.1126858e-03 0.0000000e+00 
1.0003679e+01 -3.1818210e-03 0.0000000e+00 
1.0001121e+01 -3.4394534e-03 0.0000000e+00 
9.9996920e+00 -1.2305254e-03 0.0000000e+00 
1.0004406e+01 -2.8559421e-03 0.0000000e+00 
1.0005565e+01 -9.2169037e-04 0.0000000e+00 
1.0000594e+01 -3.3053099e-03 0.0000000e+00 
9.9996157e+00 -1.3758405e-03 0.0000000e+00 
9.9997969e+00 -2.4961869e-03 0.0000000e+00 
9.9996166e+00 -1.9769254e-03 0.0000000e+00 
1.0005134e+01 -2.4023636e-03 0.0000000e+00 
1.0000168e+01 -3.1188116e-03 0.0000000e+00 
9.9995298e+00 -1.5558376e-03 0.0000000e+00 
9.9997683e+00 -9.7446213e-04 0.0000000e+00 
1.0006148e+01 3.3087225e-24 0.0000000e+00 
1.0002711e+01 -4.0720082e-03 0.0000000e+00 
1.0001974e+01 -4.0832469e-03 0.0000000e+00 
1.0005863e+01 -1.8093634e-03 0.0000000e+00 
9.9995432e+00 -2.2747891e-03 0.0000000e+00 
1.0003490e+01 -3.9524147e-03 0.0000000e+00 
1.0001318e+01 -4.0032025e-03 0.0000000e+00 
9.9996367e+00 -1.0894231e-03 0.0000000e+00 
9.9997597e+00 -2.8894932e-03 0.0000000e+00 
9.9994326e+00 -1.7741965e-03 0.0000000e+00 
1.0004315e+01 -3.7105826e-03 0.0000000e+00 
1.0000698e+01 -3.8441112e-03 0.0000000e+00 
9.9995298e+00 -1.2208028e-03 0.0000000e+00 
1.0005164e+01 -3.3315406e-03 0.0000000e+00 
1.0006520e+01 -1.0754558e-03 0.0000000e+00 
1.0000198e+01 -3.6240509e-03 0.0000000e+00 
9.9994202e+00 -1.3738032e-03 0.0000000e+00 
9.9994593e+00 -2.6287497e-03 0.0000000e+00 
9.9993219e+00 -2.0363189e-03 0.0000000e+00 
1.0006015e+01 -2.8031447e-03 0.0000000e+00 
9.9997158e+00 -3.3540297e-03 0.0000000e+00 
9.9992971e+00 -1.5604206e-03 0.0000000e+00 
1.0002316e+01 -4.7606486e-03 0.0000000e+00 
1.0003181e+01 -4.7492720e-03 0.0000000e+00 
1.0001549e+01 -4.6653347e-03 0.0000000e+00 
9.9997015e+00 -8.9345337e-04 0.0000000e+00 
1.0007200e+01 8.2718061e-25 0.0000000e+00 
9.9995975e+00 -9.6268975e-04 0.0000000e+00 
1.0004092e+01 -4.6111131e-03 0.0000000e+00 
1.0000820e+01 -4.4774800e-03 0.0000000e+00 
1.0006866e+01 -2.1116328e-03 0.0000000e+00 
9.9991941e+00 -2.3486961e-03 0.0000000e+00 
9.9994822e+00 -1.0617861e-03 0.0000000e+00 
1.0005056e+01 -4.3299850e-03 0.0000000e+00 
9.9993620e+00 -3.0475454e-03 0.0000000e+00 
9.9991560e+00 -1.7855325e-03 0.0000000e+00 
1.0000236e+01 -4.2185672e-03 0.0000000e+00 
9.9993534e+00 -1.1873851e-03 0.0000000e+00 
1.0006049e+01 -3.8883926e-03 0.0000000e+00 
1.0007635e+01 -1.2553312e-03 0.0000000e+00 
9.9996643e+00 -3.9012583e-03 0.0000000e+00 
9.9992104e+00 -1.3426659e-03 0.0000000e+00 
9.9990463e+00 -2.7190610e-03 0.0000000e+00 
9.9989939e+00 -2.0547120e-03 0.0000000e+00 
1.0007044e+01 -3.2721634e-03 0.0000000e+00 
1.0002717e+01 -5.5548032e-03 0.0000000e+00 
1.0001818e+01 -5.4420782e-03 0.0000000e+00 
9.9992495e+00 -3.5415215e-03 0.0000000e+00 
1.0003728e+01 -5.5428171e-03 0.0000000e+00 
9.9990463e+00 -1.5311020e-03 0.0000000e+00 
1.0000962e+01 -5.2209757e-03 0.0000000e+00 
9.9994574e+00 -8.9796947e-04 0.0000000e+00 
1.0004795e+01 -5.3825034e-03 0.0000000e+00 
9.9996395e+00 -7.7500439e-04 0.0000000e+00 
1.0008429e+01 8.2718061e-25 0.0000000e+00 
1.0000278e+01 -4.9170046e-03 0.0000000e+00 
9.9993143e+00 -1.0006154e-03 0.0000000e+00 
1.0008039e+01 -2.4652286e-03 0.0000000e+00 
9.9988060e+00 -2.3746220e-03 0.0000000e+00 
1.0005923e+01 -5.0550094e-03 0.0000000e+00 
9.9988756e+00 -3.1565833e-03 0.0000000e+00 
9.9996052e+00 -4.5446837e-03 0.0000000e+00 
9.9988604e+00 -1.7573447e-03 0.0000000e+00 
9.9991560e+00 -1.1258209e-03 0.0000000e+00 
1.0007083e+01 -4.5399102e-03 0.0000000e+00 
9.9991188e+00 -4.1228863e-03 0.0000000e+00 
1.0008937e+01 -1.4656456e-03 0.0000000e+00 
9.9989758e+00 -1.2789004e-03 0.0000000e+00 
9.9985895e+00 -2.7531858e-03 0.0000000e+00 
9.9986458e+00 -2.0269959e-03 0.0000000e+00 
1.0002133e+01 -6.3524544e-03 0.0000000e+00 
1.0003184e+01 -6.4850892e-03 0.0000000e+00 
1.0001128e+01 -6.0928562e-03 0.0000000e+00 
1.0008245e+01 -3.8206757e-03 0.0000000e+00 
1.0004368e+01 -6.4719375e-03 0.0000000e+00 
9.9994593e+00 -7.3765405e-04 0.0000000e+00 
1.0000330e+01 -5.7365694e-03 0.0000000e+00 
9.9986773e+00 -3.6721018e-03 0.0000000e+00 
9.9987707e+00 -1.4635888e-03 0.0000000e+00 
9.9993019e+00 -8.1491697e-04 0.0000000e+00 
1.0005616e+01 -6.2852642e-03 0.0000000e+00 
9.9995356e+00 -5.3001908e-03 0.0000000e+00 
9.9995861e+00 -6.5054931e-04 0.0000000e+00 
1.0009862e+01 8.2718061e-25 0.0000000e+00 
9.9991293e+00 -9.1161398e-04 0.0000000e+00 
1.0009407e+01 -2.8786079e-03 0.0000000e+00 
1.0006934e+01 -5.9031332e-03 0.0000000e+00 
9.9983988e+00 -2.3467422e-03 0.0000000e+00 
9.9989681e+00 -4.8060166e-03 0.0000000e+00 
9.9983387e+00 -3.1997873e-03 0.0000000e+00 
9.9985352e+00 -1.6844674e-03 0.0000000e+00 
9.9989357e+00 -1.0308205e-03 0.0000000e+00 
1.0008289e+01 -5.3017307e-03 0.0000000e+00 
9.9984465e+00 -4.2783967e-03 0.0000000e+00 
9.9987154e+00 -1.1755035e-03 0.0000000e+00 
1.0010457e+01 -1.7114152e-03 0.0000000e+00 
1.0002501e+01 -7.4187368e-03 0.0000000e+00 
1.0001323e+01 -7.1145240e-03 0.0000000e+00 
1.0003731e+01 -7.5741736e-03 0.0000000e+00 
1.0000392e+01 -6.6974498e-03 0.0000000e+00 
9.9981127e+00 -2.7245216e-03 0.0000000e+00 
9.9982634e+00 -1.9470276e-03 0.0000000e+00 
1.0005116e+01 -7.5591728e-03 0.0000000e+00 
1.0009648e+01 -4.4617886e-03 0.0000000e+00 
9.9993401e+00 -6.1740971e-04 0.0000000e+00 
9.9994545e+00 -6.1864355e-03 0.0000000e+00 
9.9991541e+00 -7.0576160e-04 0.0000000e+00 
9.9980459e+00 -3.7255078e-03 0.0000000e+00 
9.9984627e+00 -1.3492267e-03 0.0000000e+00 
1.0006576e+01 -7.3411902e-03 0.0000000e+00 
9.9987926e+00 -5.6078169e-03 0.0000000e+00 
9.9989576e+00 -7.9419941e-04 0.0000000e+00 
9.9995413e+00 -4.9975613e-04 0.0000000e+00 
1.0011536e+01 -6.6174449e-24 0.0000000e+00 
1.0008117e+01 -6.8947282e-03 0.0000000e+00 
1.0011005e+01 -3.3616070e-03 0.0000000e+00 
9.9979486e+00 -2.2578053e-03 0.0000000e+00 
9.9981785e+00 -4.9905106e-03 0.0000000e+00 
9.9987354e+00 -9.0216409e-04 0.0000000e+00 
9.9977798e+00 -3.1697243e-03 0.0000000e+00 
9.9981728e+00 -1.5562963e-03 0.0000000e+00 
1.0009700e+01 -6.1920565e-03 0.0000000e+00 
1.0001551e+01 -8.3110435e-03 0.0000000e+00 
1.0002934e+01 -8.6669819e-03 0.0000000e+00 
1.0000464e+01 -7.8233145e-03 0.0000000e+00 
9.9977045e+00 -4.3434049e-03 0.0000000e+00 
1.0004371e+01 -8.8485423e-03 0.0000000e+00 
9.9984818e+00 -1.0323845e-03 0.0000000e+00 
9.9993563e+00 -4.5965851e-04 0.0000000e+00 
1.0012233e+01 -1.9984609e-03 0.0000000e+00 
9.9993591e+00 -7.2253137e-03 0.0000000e+00 
9.9991713e+00 -5.0764612e-04 0.0000000e+00 
1.0005991e+01 -8.8308277e-03 0.0000000e+00 
9.9975843e+00 -2.6245469e-03 0.0000000e+00 
9.9978361e+00 -1.8018570e-03 0.0000000e+00 
9.9985886e+00 -6.5481425e-03 0.0000000e+00 
1.0011287e+01 -5.2107382e-03 0.0000000e+00 
9.9989672e+00 -5.6801667e-04 0.0000000e+00 
9.9973936e+00 -3.6934307e-03 0.0000000e+00 
1.0007697e+01 -8.5756844e-03 0.0000000e+00 
9.9981918e+00 -1.1880983e-03 0.0000000e+00 
9.9978647e+00 -5.8261300e-03 0.0000000e+00 
9.9987373e+00 -6.4230815e-04 0.0000000e+00 
9.9995232e+00 -3.3895555e-04 0.0000000e+00 
1.0013490e+01 -6.6174449e-24 0.0000000e+00 
1.0009499e+01 -8.0535058e-03 0.0000000e+00 
1.0012872e+01 -3.9256453e-03 0.0000000e+00 
9.9974461e+00 -2.0920206e-03 0.0000000e+00 
9.9973078e+00 -5.0688470e-03 0.0000000e+00 
9.9984751e+00 -7.3234935e-04 0.0000000e+00 
9.9971600e+00 -3.0564070e-03 0.0000000e+00 
9.9978571e+00 -1.3731709e-03 0.0000000e+00 
1.0001818e+01 -9.7117517e-03 0.0000000e+00 
1.0000551e+01 -9.1418987e-03 0.0000000e+00 
1.0003439e+01 -1.0127652e-02 0.0000000e+00 
9.9992495e+00 -8.4425034e-03 0.0000000e+00 
9.9992733e+00 -3.3013994e-04 0.0000000e+00 
1.0011348e+01 -7.2320467e-03 0.0000000e+00 
1.0005119e+01 -1.0339120e-02 0.0000000e+00 
9.9969435e+00 -4.3086954e-03 0.0000000e+00 
9.9983521e+00 -7.6503004e-03 0.0000000e+00 
9.9981756e+00 -8.4039534e-04 0.0000000e+00 
9.9990644e+00 -3.5977754e-04 0.0000000e+00 
1.0014306e+01 -2.3335295e-03 0.0000000e+00 
1.0007015e+01 -1.0317572e-02 0.0000000e+00 
9.9975004e+00 -6.8060327e-03 0.0000000e+00 
9.9969921e+00 -2.4340188e-03 0.0000000e+00 
9.9974689e+00 -1.5921994e-03 0.0000000e+00 
9.9988489e+00 -4.0530405e-04 0.0000000e+00 
1.0013202e+01 -6.0852077e-03 0.0000000e+00 
1.0009008e+01 -1.0018322e-02 0.0000000e+00 
9.9966650e+00 -3.5641841e-03 0.0000000e+00 
9.9978304e+00 -9.6913468e-04 0.0000000e+00 
9.9968433e+00 -5.9199026e-03 0.0000000e+00 
9.9986057e+00 -4.6055118e-04 0.0000000e+00 
9.9994802e+00 -1.7560759e-04 0.0000000e+00 
1.0015772e+01 -3.3087225e-24 0.0000000e+00 
1.0011113e+01 -9.4070286e-03 0.0000000e+00 
1.0015051e+01 -4.5839604e-03 0.0000000e+00 
9.9964190e+00 -5.0308825e-03 0.0000000e+00 
1.0000655e+01 -1.0685680e-02 0.0000000e+00 
9.9970198e+00 -1.8506307e-03 0.0000000e+00 
1.0002131e+01 -1.1350966e-02 0.0000000e+00 
9.9983292e+00 -5.2726094e-04 0.0000000e+00 
9.9991207e+00 -9.8681077e-03 0.0000000e+00 
9.9964628e+00 -2.8363897e-03 0.0000000e+00 
1.0004033e+01 -1.1836335e-02 0.0000000e+00 
9.9974308e+00 -1.1217640e-03 0.0000000e+00 
9.9993029e+00 -1.5136969e-04 0.0000000e+00 
9.9980764e+00 -8.9416383e-03 0.0000000e+00 
9.9990997e+00 -1.6597073e-04 0.0000000e+00 
1.0013273e+01 -8.4462538e-03 0.0000000e+00 
1.0005996e+01 -1.2081983e-02 0.0000000e+00 
9.9970751e+00 -7.9546170e-03 0.0000000e+00 
9.9960890e+00 -4.1605993e-03 0.0000000e+00 
9.9988747e+00 -1.8501286e-04 0.0000000e+00 
9.9980125e+00 -6.0710550e-04 0.0000000e+00 
1.0008213e+01 -1.2055129e-02 0.0000000e+00 
1.0016727e+01 -2.7244294e-03 0.0000000e+00 
9.9963017e+00 -6.9178077e-03 0.0000000e+00 
9.9986229e+00 -2.0934695e-04 0.0000000e+00 
9.9964962e+00 -2.1548993e-03 0.0000000e+00 
9.9969673e+00 -1.3020745e-03 0.0000000e+00 
1.0015438e+01 -7.1056825e-03 0.0000000e+00 
1.0010542e+01 -1.1703490e-02 0.0000000e+00 
9.9958458e+00 -3.3091968e-03 0.0000000e+00 
9.9958076e+00 -5.8780639e-03 0.0000000e+00 
9.9976492e+00 -7.0211175e-04 0.0000000e+00 
9.9983358e+00 -2.3887535e-04 0.0000000e+00 
9.9995003e+00 -2.8341981e-06 0.0000000e+00 
1.0018435e+01 -3.3087225e-24 0.0000000e+00 
1.0000780e+01 -1.2492687e-02 0.0000000e+00 
9.9989710e+00 -1.1537410e-02 0.0000000e+00 
1.0013001e+01 -1.0987288e-02 0.0000000e+00 
1.0002499e+01 -1.3268812e-02 0.0000000e+00 
9.9977579e+00 -1.0454239e-02 0.0000000e+00 
1.0017596e+01 -5.3518633e-03 0.0000000e+00 
9.9954176e+00 -4.8606270e-03 0.0000000e+00 
9.9980059e+00 -2.7436283e-04 0.0000000e+00 
9.9992294e+00 1.2759454e-05 0.0000000e+00 
1.0004729e+01 -1.3834581e-02 0.0000000e+00 
9.9964275e+00 -1.5145518e-03 0.0000000e+00 
9.9965782e+00 -9.3005290e-03 0.0000000e+00 
9.9958868e+00 -2.5125905e-03 0.0000000e+00 
9.9972305e+00 -8.1470504e-04 0.0000000e+00 
9.9990282e+00 1.4179699e-05 0.0000000e+00 
1.0007022e+01 -1.4119181e-02 0.0000000e+00 
1.0015523e+01 -9.8631233e-03 0.0000000e+00 
9.9956694e+00 -8.0875140e-03 0.0000000e+00 
9.9988050e+00 1.6050088e-05 0.0000000e+00 
9.9951239e+00 -3.8642895e-03 0.0000000e+00 
9.9976254e+00 -3.1673652e-04 0.0000000e+00 
1.0009616e+01 -1.4085060e-02 0.0000000e+00 
1.0019554e+01 -3.1801756e-03 0.0000000e+00 
9.9950953e+00 -6.8714903e-03 0.0000000e+00 
9.9985514e+00 1.8440438e-05 0.0000000e+00 
9.9957991e+00 -1.7644909e-03 0.0000000e+00 
9.9967461e+00 -9.4777421e-04 0.0000000e+00 
1.0018051e+01 -8.2958490e-03 0.0000000e+00 
1.0012337e+01 -1.3671120e-02 0.0000000e+00 
9.9946327e+00 -5.6818882e-03 0.0000000e+00 
9.9951763e+00 -2.9326358e-03 0.0000000e+00 
9.9971828e+00 -3.6711112e-04 0.0000000e+00 
9.9982615e+00 2.1396923e-05 0.0000000e+00 
9.9987974e+00 -1.3491761e-02 0.0000000e+00 
1.0000929e+01 -1.4607430e-02 0.0000000e+00 
9.9973869e+00 -1.2225742e-02 0.0000000e+00 
1.0002931e+01 -1.5512189e-02 0.0000000e+00 
9.9993048e+00 1.7352446e-04 0.0000000e+00 
9.9960003e+00 -1.0877401e-02 0.0000000e+00 
1.0015208e+01 -1.2831349e-02 0.0000000e+00 
9.9994793e+00 1.6924922e-04 0.0000000e+00 
1.0021544e+01 -3.3087225e-24 0.0000000e+00 
9.9991035e+00 1.9162621e-04 0.0000000e+00 
1.0005547e+01 -1.6170869e-02 0.0000000e+00 
9.9942789e+00 -4.5156125e-03 0.0000000e+00 
1.0020568e+01 -6.2470241e-03 0.0000000e+00 
9.9949312e+00 -9.4583407e-03 0.0000000e+00 
9.9979296e+00 2.4997251e-05 0.0000000e+00 
9.9961843e+00 -1.1047520e-03 0.0000000e+00 
9.9988804e+00 2.1422525e-04 0.0000000e+00 
9.9950657e+00 -2.0581344e-03 0.0000000e+00 
9.9966688e+00 -4.2682339e-04 0.0000000e+00 
1.0008225e+01 -1.6499683e-02 0.0000000e+00 
9.9942636e+00 -8.0361534e-03 0.0000000e+00 
1.0018151e+01 -1.1515538e-02 0.0000000e+00 
9.9986296e+00 2.4270378e-04 0.0000000e+00 
9.9943476e+00 -3.4255423e-03 0.0000000e+00 
1.0011258e+01 -1.6455660e-02 0.0000000e+00 
9.9975471e+00 2.9344270e-05 0.0000000e+00 
9.9937162e+00 -6.6451151e-03 0.0000000e+00 
1.0022855e+01 -3.7111496e-03 0.0000000e+00 
9.9983444e+00 2.7734617e-04 0.0000000e+00 
9.9955349e+00 -1.2897119e-03 0.0000000e+00 
9.9960680e+00 -4.9747434e-04 0.0000000e+00 
1.0014436e+01 -1.5967498e-02 0.0000000e+00 
1.0021102e+01 -9.6830232e-03 0.0000000e+00 
9.9985962e+00 -1.5779618e-02 0.0000000e+00 
9.9969578e+00 -1.4300304e-02 0.0000000e+00 
9.9932909e+00 -5.2795727e-03 0.0000000e+00 
1.0001109e+01 -1.7081996e-02 0.0000000e+00 
9.9942102e+00 -2.4028353e-03 0.0000000e+00 
9.9980173e+00 3.1906582e-04 0.0000000e+00 
9.9953251e+00 -1.2724726e-02 0.0000000e+00 
9.9971046e+00 3.4564229e-05 0.0000000e+00 