# vtk DataFile Version 4.0
vtk output
ASCII
DATASET UNSTRUCTURED_GRID
POINTS 3806 float
2.0000000e+01 1.0000000e+01 0.0000000e+00 
1.9750000e+01 1.0000000e+01 0.0000000e+00 
2.0000000e+01 9.7500000e+00 0.0000000e+00 
1.9625000e+01 9.7427902e+00 0.0000000e+00 
2.0000000e+01 9.5000000e+00 0.0000000e+00 
1.9500000e+01 1.0000000e+01 0.0000000e+00 
1.9750000e+01 9.5262804e+00 0.0000000e+00 
1.9375000e+01 9.7427902e+00 0.0000000e+00 
1.9500000e+01 9.5262804e+00 0.0000000e+00 
1.9250000e+01 1.0000000e+01 0.0000000e+00 
2.0000000e+01 9.2500000e+00 0.0000000e+00 
1.9645800e+01 9.2998104e+00 0.0000000e+00 
1.9250000e+01 9.5262804e+00 0.0000000e+00 
1.9125000e+01 9.7427902e+00 0.0000000e+00 
1.9375000e+01 9.3097696e+00 0.0000000e+00 
1.9750000e+01 9.0932703e+00 0.0000000e+00 
2.0000000e+01 9.0000000e+00 0.0000000e+00 
1.9000000e+01 1.0000000e+01 0.0000000e+00 
1.9500000e+01 9.0932703e+00 0.0000000e+00 
1.9000000e+01 9.5262804e+00 0.0000000e+00 
1.9125000e+01 9.3097696e+00 0.0000000e+00 
1.8875000e+01 9.7427902e+00 0.0000000e+00 
1.9696400e+01 8.8762598e+00 0.0000000e+00 
1.9250000e+01 9.0932703e+00 0.0000000e+00 
2.0000000e+01 8.7500000e+00 0.0000000e+00 
1.8750000e+01 1.0000000e+01 0.0000000e+00 
1.9375000e+01 8.8767595e+00 0.0000000e+00 
1.8875000e+01 9.3097696e+00 0.0000000e+00 
1.8750000e+01 9.5262804e+00 0.0000000e+00 
1.9000000e+01 9.0932703e+00 0.0000000e+00 
1.9750000e+01 8.6602497e+00 0.0000000e+00 
1.8625000e+01 9.7427902e+00 0.0000000e+00 
1.9125000e+01 8.8767595e+00 0.0000000e+00 
1.9500000e+01 8.6602497e+00 0.0000000e+00 
2.0000000e+01 8.5000000e+00 0.0000000e+00 
1.8500000e+01 1.0000000e+01 0.0000000e+00 
1.9250000e+01 8.6602497e+00 0.0000000e+00 
1.8625000e+01 9.3097696e+00 0.0000000e+00 
1.8750000e+01 9.0932703e+00 0.0000000e+00 
1.8500000e+01 9.5262804e+00 0.0000000e+00 
1.9645800e+01 8.4531202e+00 0.0000000e+00 
1.8875000e+01 8.8767595e+00 0.0000000e+00 
1.8375000e+01 9.7427902e+00 0.0000000e+00 
1.9000000e+01 8.6602497e+00 0.0000000e+00 
1.9375000e+01 8.4437504e+00 0.0000000e+00 
2.0000000e+01 8.2500000e+00 0.0000000e+00 
1.8250000e+01 1.0000000e+01 0.0000000e+00 
1.8500000e+01 9.0932703e+00 0.0000000e+00 
1.8375000e+01 9.3097696e+00 0.0000000e+00 
1.8625000e+01 8.8767595e+00 0.0000000e+00 
1.9125000e+01 8.4437504e+00 0.0000000e+00 
1.9750000e+01 8.2272396e+00 0.0000000e+00 
1.8250000e+01 9.5262804e+00 0.0000000e+00 
1.8750000e+01 8.6602497e+00 0.0000000e+00 
1.9500000e+01 8.2272396e+00 0.0000000e+00 
1.8125000e+01 9.7427902e+00 0.0000000e+00 
1.8875000e+01 8.4437504e+00 0.0000000e+00 
1.9250000e+01 8.2272396e+00 0.0000000e+00 
1.8250000e+01 9.0932703e+00 0.0000000e+00 
1.8375000e+01 8.8767595e+00 0.0000000e+00 
1.8125000e+01 9.3097696e+00 0.0000000e+00 
2.0000000e+01 8.0000000e+00 0.0000000e+00 
1.8000000e+01 1.0000000e+01 0.0000000e+00 
1.8500000e+01 8.6602497e+00 0.0000000e+00 
1.9625000e+01 8.0107298e+00 0.0000000e+00 
1.9000000e+01 8.2272396e+00 0.0000000e+00 
1.8000000e+01 9.5262804e+00 0.0000000e+00 
1.8625000e+01 8.4437504e+00 0.0000000e+00 
1.9375000e+01 8.0107298e+00 0.0000000e+00 
1.7875000e+01 9.7834902e+00 0.0000000e+00 
1.8750000e+01 8.2272396e+00 0.0000000e+00 
1.9125000e+01 8.0107298e+00 0.0000000e+00 
1.8125000e+01 8.8767595e+00 0.0000000e+00 
1.8000000e+01 9.0932703e+00 0.0000000e+00 
1.8250000e+01 8.6602497e+00 0.0000000e+00 
1.9750000e+01 7.7942300e+00 0.0000000e+00 
1.7875000e+01 9.3097696e+00 0.0000000e+00 
2.0000000e+01 7.7500000e+00 0.0000000e+00 
1.7750000e+01 1.0000000e+01 0.0000000e+00 
1.8375000e+01 8.4437504e+00 0.0000000e+00 
1.9500000e+01 7.7942300e+00 0.0000000e+00 
1.8875000e+01 8.0107298e+00 0.0000000e+00 
1.7750000e+01 9.5262804e+00 0.0000000e+00 
1.8500000e+01 8.2272396e+00 0.0000000e+00 
1.9250000e+01 7.7942300e+00 0.0000000e+00 
1.7625000e+01 9.7834902e+00 0.0000000e+00 
1.7875000e+01 8.8767595e+00 0.0000000e+00 
1.8000000e+01 8.6602497e+00 0.0000000e+00 
1.8625000e+01 8.0107298e+00 0.0000000e+00 
1.9000000e+01 7.7942300e+00 0.0000000e+00 
1.7750000e+01 9.0932703e+00 0.0000000e+00 
1.8125000e+01 8.4437504e+00 0.0000000e+00 
1.9645800e+01 7.5647702e+00 0.0000000e+00 
1.7625000e+01 9.3097696e+00 0.0000000e+00 
1.8250000e+01 8.2272396e+00 0.0000000e+00 
2.0000000e+01 7.5000000e+00 0.0000000e+00 
1.7500000e+01 1.0000000e+01 0.0000000e+00 
1.9375000e+01 7.5777202e+00 0.0000000e+00 
1.8750000e+01 7.7942300e+00 0.0000000e+00 
1.7500000e+01 9.5262804e+00 0.0000000e+00 
1.8375000e+01 8.0107298e+00 0.0000000e+00 
1.9125000e+01 7.5777202e+00 0.0000000e+00 
1.7750000e+01 8.6602497e+00 0.0000000e+00 
1.7625000e+01 8.8767595e+00 0.0000000e+00 
1.7875000e+01 8.4437504e+00 0.0000000e+00 
1.7375000e+01 9.7427902e+00 0.0000000e+00 
1.9768499e+01 7.3630099e+00 0.0000000e+00 
1.7500000e+01 9.0932703e+00 0.0000000e+00 
1.8500000e+01 7.7942300e+00 0.0000000e+00 
1.8875000e+01 7.5777202e+00 0.0000000e+00 
1.8000000e+01 8.2272396e+00 0.0000000e+00 
1.9500000e+01 7.3612199e+00 0.0000000e+00 
1.7375000e+01 9.3097696e+00 0.0000000e+00 
1.8125000e+01 8.0107298e+00 0.0000000e+00 
1.9250000e+01 7.3612199e+00 0.0000000e+00 
2.0000000e+01 7.2500000e+00 0.0000000e+00 
1.7250000e+01 1.0000000e+01 0.0000000e+00 
1.8625000e+01 7.5777202e+00 0.0000000e+00 
1.7250000e+01 9.5262804e+00 0.0000000e+00 
1.8250000e+01 7.7942300e+00 0.0000000e+00 
1.9000000e+01 7.3612199e+00 0.0000000e+00 
1.7500000e+01 8.6602497e+00 0.0000000e+00 
1.7625000e+01 8.4437504e+00 0.0000000e+00 
1.7375000e+01 8.8767595e+00 0.0000000e+00 
1.7750000e+01 8.2272396e+00 0.0000000e+00 
1.9696400e+01 7.1390800e+00 0.0000000e+00 
1.7125000e+01 9.7427902e+00 0.0000000e+00 
1.7250000e+01 9.0932703e+00 0.0000000e+00 
1.7875000e+01 8.0107298e+00 0.0000000e+00 
1.8375000e+01 7.5777202e+00 0.0000000e+00 
1.8750000e+01 7.3612199e+00 0.0000000e+00 
1.9375000e+01 7.1447101e+00 0.0000000e+00 
1.7125000e+01 9.3097696e+00 0.0000000e+00 
1.8000000e+01 7.7942300e+00 0.0000000e+00 
1.9125000e+01 7.1447101e+00 0.0000000e+00 
2.0000000e+01 7.0000000e+00 0.0000000e+00 
1.7000000e+01 1.0000000e+01 0.0000000e+00 
1.8500000e+01 7.3612199e+00 0.0000000e+00 
1.7000000e+01 9.5262804e+00 0.0000000e+00 
1.7375000e+01 8.4437504e+00 0.0000000e+00 
1.7250000e+01 8.6602497e+00 0.0000000e+00 
1.8125000e+01 7.5777202e+00 0.0000000e+00 
1.7500000e+01 8.2272396e+00 0.0000000e+00 
1.8875000e+01 7.1447101e+00 0.0000000e+00 
1.9750000e+01 6.9281998e+00 0.0000000e+00 
1.7125000e+01 8.8767595e+00 0.0000000e+00 
1.7625000e+01 8.0107298e+00 0.0000000e+00 
1.9500000e+01 6.9281998e+00 0.0000000e+00 
1.7000000e+01 9.0932703e+00 0.0000000e+00 
1.6875000e+01 9.7427902e+00 0.0000000e+00 
1.7750000e+01 7.7942300e+00 0.0000000e+00 
1.9250000e+01 6.9281998e+00 0.0000000e+00 
1.8250000e+01 7.3612199e+00 0.0000000e+00 
1.8625000e+01 7.1447101e+00 0.0000000e+00 
1.6875000e+01 9.3097696e+00 0.0000000e+00 
1.7875000e+01 7.5777202e+00 0.0000000e+00 
1.9000000e+01 6.9281998e+00 0.0000000e+00 
2.0000000e+01 6.7500000e+00 0.0000000e+00 
1.6750000e+01 1.0000000e+01 0.0000000e+00 
1.7125000e+01 8.4437504e+00 0.0000000e+00 
1.7250000e+01 8.2272396e+00 0.0000000e+00 
1.6750000e+01 9.5262804e+00 0.0000000e+00 
1.8375000e+01 7.1447101e+00 0.0000000e+00 
1.7000000e+01 8.6602497e+00 0.0000000e+00 
1.7375000e+01 8.0107298e+00 0.0000000e+00 
1.9645800e+01 6.7180800e+00 0.0000000e+00 
1.8000000e+01 7.3612199e+00 0.0000000e+00 
1.8750000e+01 6.9281998e+00 0.0000000e+00 
1.6875000e+01 8.8767595e+00 0.0000000e+00 
1.7500000e+01 7.7942300e+00 0.0000000e+00 
1.9375000e+01 6.7117000e+00 0.0000000e+00 
1.6750000e+01 9.0932703e+00 0.0000000e+00 
1.6625000e+01 9.7427902e+00 0.0000000e+00 
1.7625000e+01 7.5777202e+00 0.0000000e+00 
1.9125000e+01 6.7117000e+00 0.0000000e+00 
1.8125000e+01 7.1447101e+00 0.0000000e+00 
1.8500000e+01 6.9281998e+00 0.0000000e+00 
1.6625000e+01 9.3097696e+00 0.0000000e+00 
1.7750000e+01 7.3612199e+00 0.0000000e+00 
1.8875000e+01 6.7117000e+00 0.0000000e+00 
1.7000000e+01 8.2272396e+00 0.0000000e+00 
1.6875000e+01 8.4437504e+00 0.0000000e+00 
1.7125000e+01 8.0107298e+00 0.0000000e+00 
2.0000000e+01 6.5000000e+00 0.0000000e+00 
1.6500000e+01 1.0000000e+01 0.0000000e+00 
1.9750000e+01 6.4951901e+00 0.0000000e+00 
1.6750000e+01 8.6602497e+00 0.0000000e+00 
1.7250000e+01 7.7942300e+00 0.0000000e+00 
1.6500000e+01 9.5262804e+00 0.0000000e+00 
1.8250000e+01 6.9281998e+00 0.0000000e+00 
1.9500000e+01 6.4951901e+00 0.0000000e+00 
1.6625000e+01 8.8767595e+00 0.0000000e+00 
1.7875000e+01 7.1447101e+00 0.0000000e+00 
1.8625000e+01 6.7117000e+00 0.0000000e+00 
1.7375000e+01 7.5777202e+00 0.0000000e+00 
1.9250000e+01 6.4951901e+00 0.0000000e+00 
1.6500000e+01 9.0932703e+00 0.0000000e+00 
1.6375000e+01 9.7427902e+00 0.0000000e+00 
1.7500000e+01 7.3612199e+00 0.0000000e+00 
1.9000000e+01 6.4951901e+00 0.0000000e+00 
1.8000000e+01 6.9281998e+00 0.0000000e+00 
1.8375000e+01 6.7117000e+00 0.0000000e+00 
1.6375000e+01 9.3097696e+00 0.0000000e+00 
1.6750000e+01 8.2272396e+00 0.0000000e+00 
1.6875000e+01 8.0107298e+00 0.0000000e+00 
1.7625000e+01 7.1447101e+00 0.0000000e+00 
1.6625000e+01 8.4437504e+00 0.0000000e+00 
1.8750000e+01 6.4951901e+00 0.0000000e+00 
1.7000000e+01 7.7942300e+00 0.0000000e+00 
1.9625000e+01 6.2786798e+00 0.0000000e+00 
1.6500000e+01 8.6602497e+00 0.0000000e+00 
2.0000000e+01 6.2500000e+00 0.0000000e+00 
1.6250000e+01 1.0000000e+01 0.0000000e+00 
1.7125000e+01 7.5777202e+00 0.0000000e+00 
1.9375000e+01 6.2786798e+00 0.0000000e+00 
1.6250000e+01 9.5262804e+00 0.0000000e+00 
1.8125000e+01 6.7117000e+00 0.0000000e+00 
1.6375000e+01 8.8767595e+00 0.0000000e+00 
1.7750000e+01 6.9281998e+00 0.0000000e+00 
1.7250000e+01 7.3612199e+00 0.0000000e+00 
1.8500000e+01 6.4951901e+00 0.0000000e+00 
1.9125000e+01 6.2786798e+00 0.0000000e+00 
1.6250000e+01 9.0932703e+00 0.0000000e+00 
1.7375000e+01 7.1447101e+00 0.0000000e+00 
1.6125000e+01 9.7427902e+00 0.0000000e+00 
[...]
POINT_DATA 3806
FIELD FieldData 2
VELOCITY 3 3806  float
1.0000553e+01 1.1632227e-25 0.0000000e+00 
1.0000783e+01 -6.7208425e-25 0.0000000e+00 
1.0000527e+01 -2.2313264e-04 0.0000000e+00 
1.0000878e+01 -2.5713287e-04 0.0000000e+00 
1.0000520e+01 -4.4376083e-04 0.0000000e+00 
1.0001037e+01 4.1359031e-25 0.0000000e+00 
1.0000741e+01 -4.5029167e-04 0.0000000e+00 
1.0001137e+01 -2.8438732e-04 0.0000000e+00 
1.0000983e+01 -4.9194327e-04 0.0000000e+00 
1.0001316e+01 4.1359031e-25 0.0000000e+00 
1.0000482e+01 -6.4692181e-04 0.0000000e+00 
1.0000793e+01 -6.7530782e-04 0.0000000e+00 
1.0001250e+01 -5.4573640e-04 0.0000000e+00 
1.0001424e+01 -3.1792137e-04 0.0000000e+00 
1.0001053e+01 -7.4131804e-04 0.0000000e+00 
1.0000648e+01 -8.2600745e-04 0.0000000e+00 
1.0000436e+01 -8.4272068e-04 0.0000000e+00 
1.0001628e+01 7.2378304e-25 0.0000000e+00 
1.0000860e+01 -9.0562110e-04 0.0000000e+00 
1.0001548e+01 -6.1333954e-04 0.0000000e+00 
1.0001317e+01 -8.2857424e-04 0.0000000e+00 
1.0001747e+01 -3.5922069e-04 0.0000000e+00 
1.0000624e+01 -1.0095236e-03 0.0000000e+00 
1.0001095e+01 -1.0044586e-03 0.0000000e+00 
1.0000379e+01 -1.0142360e-03 0.0000000e+00 
1.0001981e+01 7.2378304e-25 0.0000000e+00 
1.0000881e+01 -1.1438829e-03 0.0000000e+00 
1.0001616e+01 -9.3603920e-04 0.0000000e+00 
1.0001884e+01 -6.9603400e-04 0.0000000e+00 
1.0001356e+01 -1.1289254e-03 0.0000000e+00 
1.0000508e+01 -1.1436244e-03 0.0000000e+00 
1.0002114e+01 -4.0925102e-04 0.0000000e+00 
1.0001103e+01 -1.2791791e-03 0.0000000e+00 
1.0000677e+01 -1.2519119e-03 0.0000000e+00 
1.0000313e+01 -1.1535229e-03 0.0000000e+00 
1.0002382e+01 7.2378304e-25 0.0000000e+00 
1.0000862e+01 -1.3893845e-03 0.0000000e+00 
1.0001954e+01 -1.0665494e-03 0.0000000e+00 
1.0001652e+01 -1.2812199e-03 0.0000000e+00 
1.0002266e+01 -7.9603912e-04 0.0000000e+00 
1.0000486e+01 -1.3100717e-03 0.0000000e+00 
1.0001354e+01 -1.4449859e-03 0.0000000e+00 
1.0002533e+01 -4.6890968e-04 0.0000000e+00 
1.0001069e+01 -1.5614278e-03 0.0000000e+00 
1.0000643e+01 -1.4638323e-03 0.0000000e+00 
1.0000235e+01 -1.2836884e-03 0.0000000e+00 
1.0002842e+01 1.4475661e-24 0.0000000e+00 
1.0001988e+01 -1.4650557e-03 0.0000000e+00 
1.0002341e+01 -1.2233149e-03 0.0000000e+00 
1.0001638e+01 -1.6464592e-03 0.0000000e+00 
1.0000808e+01 -1.6358603e-03 0.0000000e+00 
1.0000330e+01 -1.3792240e-03 0.0000000e+00 
1.0002705e+01 -9.1580290e-04 0.0000000e+00 
1.0001302e+01 -1.7719975e-03 0.0000000e+00 
1.0000441e+01 -1.5069011e-03 0.0000000e+00 
1.0003017e+01 -5.3887017e-04 0.0000000e+00 
1.0000992e+01 -1.8479569e-03 0.0000000e+00 
1.0000563e+01 -1.6720850e-03 0.0000000e+00 
1.0002374e+01 -1.6851774e-03 0.0000000e+00 
1.0001964e+01 -1.8885529e-03 0.0000000e+00 
1.0002786e+01 -1.4102469e-03 0.0000000e+00 
1.0000158e+01 -1.3582043e-03 0.0000000e+00 
1.0003368e+01 1.4475661e-24 0.0000000e+00 
1.0001568e+01 -2.0262823e-03 0.0000000e+00 
1.0000278e+01 -1.5174011e-03 0.0000000e+00 
1.0000699e+01 -1.8790253e-03 0.0000000e+00 
1.0003212e+01 -1.0606954e-03 0.0000000e+00 
1.0001202e+01 -2.1056619e-03 0.0000000e+00 
1.0000361e+01 -1.6758693e-03 0.0000000e+00 
1.0003589e+01 -5.2685005e-04 0.0000000e+00 
1.0000853e+01 -2.1323860e-03 0.0000000e+00 
1.0000455e+01 -1.8724084e-03 0.0000000e+00 
1.0002338e+01 -2.1771723e-03 0.0000000e+00 
1.0002818e+01 -1.9464807e-03 0.0000000e+00 
1.0001873e+01 -2.3305139e-03 0.0000000e+00 
1.0000121e+01 -1.5102684e-03 0.0000000e+00 
1.0003300e+01 -1.6315803e-03 0.0000000e+00 
1.0000066e+01 -1.4216603e-03 0.0000000e+00 
1.0003988e+01 3.1019273e-25 0.0000000e+00 
1.0001441e+01 -2.4153222e-03 0.0000000e+00 
1.0000166e+01 -1.6506045e-03 0.0000000e+00 
1.0000561e+01 -2.1152582e-03 0.0000000e+00 
1.0003797e+01 -1.2264840e-03 0.0000000e+00 
1.0001028e+01 -2.4383878e-03 0.0000000e+00 
1.0000215e+01 -1.8315860e-03 0.0000000e+00 
1.0004236e+01 -6.1517057e-04 0.0000000e+00 
1.0002770e+01 -2.5194893e-03 0.0000000e+00 
1.0002225e+01 -2.6922126e-03 0.0000000e+00 
1.0000681e+01 -2.4103397e-03 0.0000000e+00 
1.0000270e+01 -2.0582746e-03 0.0000000e+00 
1.0003333e+01 -2.2557189e-03 0.0000000e+00 
1.0001717e+01 -2.7845742e-03 0.0000000e+00 
1.0000032e+01 -1.5860689e-03 0.0000000e+00 
1.0003898e+01 -1.8940648e-03 0.0000000e+00 
1.0001229e+01 -2.8045736e-03 0.0000000e+00 
9.9999866e+00 -1.4289839e-03 0.0000000e+00 
1.0004705e+01 4.1359031e-25 0.0000000e+00 
1.0000056e+01 -1.7636893e-03 0.0000000e+00 
1.0000331e+01 -2.3358266e-03 0.0000000e+00 
1.0004473e+01 -1.4211511e-03 0.0000000e+00 
1.0000818e+01 -2.7649391e-03 0.0000000e+00 
1.0000072e+01 -1.9709410e-03 0.0000000e+00 
1.0002632e+01 -3.1203076e-03 0.0000000e+00 
1.0003272e+01 -2.9238537e-03 0.0000000e+00 
1.0002035e+01 -3.2225116e-03 0.0000000e+00 
1.0004969e+01 -8.4600982e-04 0.0000000e+00 
9.9999056e+00 -1.5181600e-03 0.0000000e+00 
1.0003930e+01 -2.6209785e-03 0.0000000e+00 
1.0000401e+01 -2.6710783e-03 0.0000000e+00 
1.0000093e+01 -2.2266333e-03 0.0000000e+00 
1.0001461e+01 -3.2399730e-03 0.0000000e+00 
9.9998779e+00 -1.6726602e-03 0.0000000e+00 
1.0004590e+01 -2.2028578e-03 0.0000000e+00 
1.0000977e+01 -3.1878133e-03 0.0000000e+00 
9.9998512e+00 -1.8567750e-03 0.0000000e+00 
9.9998903e+00 -1.4144663e-03 0.0000000e+00 
1.0005530e+01 4.1359031e-25 0.0000000e+00 
1.0000115e+01 -2.5373322e-03 0.0000000e+00 
1.0005262e+01 -1.6568988e-03 0.0000000e+00 
1.0000482e+01 -3.0723028e-03 0.0000000e+00 
9.9998207e+00 -2.0867474e-03 0.0000000e+00 
1.0003104e+01 -3.6252921e-03 0.0000000e+00 
1.0002404e+01 -3.7399333e-03 0.0000000e+00 
1.0003854e+01 -3.4002613e-03 0.0000000e+00 
1.0001729e+01 -3.7553199e-03 0.0000000e+00 
9.9998016e+00 -1.5172005e-03 0.0000000e+00 
1.0005843e+01 -9.8435557e-04 0.0000000e+00 
1.0004624e+01 -3.0504416e-03 0.0000000e+00 
1.0001160e+01 -3.6894039e-03 0.0000000e+00 
1.0000142e+01 -2.9107402e-03 0.0000000e+00 
9.9997864e+00 -2.3683133e-03 0.0000000e+00 
9.9997330e+00 -1.7201905e-03 0.0000000e+00 
1.0005397e+01 -2.5651704e-03 0.0000000e+00 
1.0000573e+01 -3.5494075e-03 0.0000000e+00 
9.9996700e+00 -1.9234722e-03 0.0000000e+00 
9.9998140e+00 -1.3673106e-03 0.0000000e+00 
1.0006494e+01 0.0000000e+00 0.0000000e+00 
9.9997454e+00 -2.7084199e-03 0.0000000e+00 
1.0006182e+01 -1.9308988e-03 0.0000000e+00 
1.0002833e+01 -4.3495763e-03 0.0000000e+00 
1.0003654e+01 -4.2196224e-03 0.0000000e+00 
1.0000174e+01 -3.3560973e-03 0.0000000e+00 
1.0002041e+01 -4.3633240e-03 0.0000000e+00 
9.9995995e+00 -2.1727793e-03 0.0000000e+00 
9.9997034e+00 -1.4360233e-03 0.0000000e+00 
1.0004532e+01 -3.9604059e-03 0.0000000e+00 
1.0001372e+01 -4.2820931e-03 0.0000000e+00 
9.9996147e+00 -1.5731992e-03 0.0000000e+00 
1.0005433e+01 -3.5549651e-03 0.0000000e+00 
1.0006863e+01 -1.1479999e-03 0.0000000e+00 
1.0000680e+01 -4.1141761e-03 0.0000000e+00 
9.9995174e+00 -1.7453377e-03 0.0000000e+00 
9.9996986e+00 -3.1154910e-03 0.0000000e+00 
9.9995203e+00 -2.4758636e-03 0.0000000e+00 
1.0006337e+01 -2.9908537e-03 0.0000000e+00 
1.0000211e+01 -3.8844191e-03 0.0000000e+00 
9.9994078e+00 -1.9616403e-03 0.0000000e+00 
9.9997234e+00 -1.2710061e-03 0.0000000e+00 
1.0007617e+01 0.0000000e+00 0.0000000e+00 
1.0003334e+01 -5.0664409e-03 0.0000000e+00 
1.0002403e+01 -5.0789672e-03 0.0000000e+00 
1.0007254e+01 -2.2523326e-03 0.0000000e+00 
9.9994307e+00 -2.8401846e-03 0.0000000e+00 
1.0004293e+01 -4.9178666e-03 0.0000000e+00 
1.0001619e+01 -4.9805106e-03 0.0000000e+00 
9.9995556e+00 -1.3991742e-03 0.0000000e+00 
9.9996433e+00 -3.5996025e-03 0.0000000e+00 
9.9992838e+00 -2.2264714e-03 0.0000000e+00 
1.0005322e+01 -4.6179635e-03 0.0000000e+00 
1.0000803e+01 -4.7805603e-03 0.0000000e+00 
9.9994164e+00 -1.5528456e-03 0.0000000e+00 
1.0006376e+01 -4.1468889e-03 0.0000000e+00 
1.0008051e+01 -1.3396178e-03 0.0000000e+00 
1.0000255e+01 -4.5087743e-03 0.0000000e+00 
9.9992762e+00 -1.7352122e-03 0.0000000e+00 
9.9993277e+00 -3.2747546e-03 0.0000000e+00 
9.9991426e+00 -2.5464061e-03 0.0000000e+00 
1.0007434e+01 -3.4900247e-03 0.0000000e+00 
9.9995804e+00 -4.1727382e-03 0.0000000e+00 
9.9991179e+00 -1.9602031e-03 0.0000000e+00 
1.0002826e+01 -5.9198863e-03 0.0000000e+00 
1.0003917e+01 -5.9081600e-03 0.0000000e+00 
1.0001908e+01 -5.8018952e-03 0.0000000e+00 
9.9996576e+00 -1.1661709e-03 0.0000000e+00 
1.0008928e+01 8.2718061e-25 0.0000000e+00 
9.9995222e+00 -1.2411107e-03 0.0000000e+00 
1.0005040e+01 -5.7371696e-03 0.0000000e+00 
1.0000946e+01 -5.5650258e-03 0.0000000e+00 
1.0008504e+01 -2.6290261e-03 0.0000000e+00 
9.9989805e+00 -2.9293885e-03 0.0000000e+00 
9.9993734e+00 -1.3550599e-03 0.0000000e+00 
1.0006245e+01 -5.3890697e-03 0.0000000e+00 
9.9992085e+00 -3.7903301e-03 0.0000000e+00 
9.9989376e+00 -2.2337218e-03 0.0000000e+00 
1.0000307e+01 -5.2446113e-03 0.0000000e+00 
9.9992104e+00 -1.5034056e-03 0.0000000e+00 
1.0007477e+01 -4.8406608e-03 0.0000000e+00 
1.0009439e+01 -1.5639809e-03 0.0000000e+00 
9.9995050e+00 -4.8490879e-03 0.0000000e+00 
9.9990273e+00 -1.6894782e-03 0.0000000e+00 
9.9987936e+00 -3.3849159e-03 0.0000000e+00 
9.9987307e+00 -2.5625641e-03 0.0000000e+00 
1.0008715e+01 -4.0747784e-03 0.0000000e+00 
1.0003318e+01 -6.9067921e-03 0.0000000e+00 
1.0002245e+01 -6.7665181e-03 0.0000000e+00 
9.9990721e+00 -4.3996777e-03 0.0000000e+00 
1.0004597e+01 -6.8954160e-03 0.0000000e+00 
9.9988222e+00 -1.9174335e-03 0.0000000e+00 
1.0001113e+01 -6.4869602e-03 0.0000000e+00 
9.9993515e+00 -1.1521137e-03 0.0000000e+00 
1.0005913e+01 -6.6976119e-03 0.0000000e+00 
9.9995899e+00 -1.0094851e-03 0.0000000e+00 
1.0010459e+01 8.2718061e-25 0.0000000e+00 
1.0000368e+01 -6.1101415e-03 0.0000000e+00 
9.9991703e+00 -1.2721977e-03 0.0000000e+00 
1.0009964e+01 -3.0701254e-03 0.0000000e+00 
9.9984941e+00 -2.9548877e-03 0.0000000e+00 
1.0007321e+01 -6.2925615e-03 0.0000000e+00 
9.9985781e+00 -3.9242809e-03 0.0000000e+00 
9.9994183e+00 -5.6454060e-03 0.0000000e+00 
9.9985886e+00 -2.1929368e-03 0.0000000e+00 
9.9989691e+00 -1.4210988e-03 0.0000000e+00 
1.0008762e+01 -5.6531639e-03 0.0000000e+00 
9.9989138e+00 -5.1178951e-03 0.0000000e+00 
1.0011059e+01 -1.8265498e-03 0.0000000e+00 
9.9987421e+00 -1.6055602e-03 0.0000000e+00 
9.9982195e+00 -3.4204244e-03 0.0000000e+00 
9.9983215e+00 -2.5228411e-03 0.0000000e+00 
1.0002638e+01 -7.8981835e-03 0.0000000e+00 
1.0003894e+01 -8.0639794e-03 0.0000000e+00 
1.0001307e+01 -7.5691566e-03 0.0000000e+00 
1.0010210e+01 -4.7592889e-03 0.0000000e+00 
1.0005392e+01 -8.0524394e-03 0.0000000e+00 
9.9993582e+00 -9.4603136e-04 0.0000000e+00 
1.0000441e+01 -7.1267993e-03 0.0000000e+00 
9.9983273e+00 -4.5608557e-03 0.0000000e+00 
9.9984846e+00 -1.8299938e-03 0.0000000e+00 
9.9991474e+00 -1.0367521e-03 0.0000000e+00 
1.0006931e+01 -7.8226849e-03 0.0000000e+00 
9.9993162e+00 -6.5814308e-03 0.0000000e+00 
9.9995251e+00 -8.4642495e-04 0.0000000e+00 
1.0012246e+01 8.2718061e-25 0.0000000e+00 
9.9989195e+00 -1.1507733e-03 0.0000000e+00 
1.0011669e+01 -3.5862946e-03 0.0000000e+00 
1.0008579e+01 -7.3504457e-03 0.0000000e+00 
9.9980135e+00 -2.9153517e-03 0.0000000e+00 
9.9987297e+00 -5.9627886e-03 0.0000000e+00 
9.9979019e+00 -3.9707259e-03 0.0000000e+00 
9.9981909e+00 -2.0999673e-03 0.0000000e+00 
9.9986668e+00 -1.2928961e-03 0.0000000e+00 
1.0010264e+01 -6.6041038e-03 0.0000000e+00 
9.9980354e+00 -5.3104293e-03 0.0000000e+00 
9.9983816e+00 -1.4671655e-03 0.0000000e+00 
1.0012952e+01 -2.1336507e-03 0.0000000e+00 
1.0003098e+01 -9.2248144e-03 0.0000000e+00 
1.0001534e+01 -8.8383798e-03 0.0000000e+00 
1.0004567e+01 -9.4199143e-03 0.0000000e+00 
1.0000526e+01 -8.3197756e-03 0.0000000e+00 
9.9976587e+00 -3.3802327e-03 0.0000000e+00 
9.9978523e+00 -2.4222124e-03 0.0000000e+00 
1.0006321e+01 -9.4075846e-03 0.0000000e+00 
1.0011957e+01 -5.5600842e-03 0.0000000e+00 
9.9992313e+00 -7.9015380e-04 0.0000000e+00 
9.9991961e+00 -7.6803849e-03 0.0000000e+00 
9.9989996e+00 -8.9319324e-04 0.0000000e+00 
9.9975319e+00 -4.6194564e-03 0.0000000e+00 
9.9980564e+00 -1.6779026e-03 0.0000000e+00 
1.0008121e+01 -9.1398377e-03 0.0000000e+00 
9.9985170e+00 -6.9553279e-03 0.0000000e+00 
9.9987535e+00 -9.9750597e-04 0.0000000e+00 
9.9994736e+00 -6.5596373e-04 0.0000000e+00 
1.0014334e+01 0.0000000e+00 0.0000000e+00 
1.0010049e+01 -8.5884063e-03 0.0000000e+00 
1.0013660e+01 -4.1899462e-03 0.0000000e+00 
9.9974613e+00 -2.8047701e-03 0.0000000e+00 
9.9976969e+00 -6.1916043e-03 0.0000000e+00 
9.9984770e+00 -1.1266180e-03 0.0000000e+00 
9.9972467e+00 -3.9290548e-03 0.0000000e+00 
9.9976816e+00 -1.9303468e-03 0.0000000e+00 
1.0012020e+01 -7.7164480e-03 0.0000000e+00 
1.0001801e+01 -1.0326035e-02 0.0000000e+00 
1.0003637e+01 -1.0779133e-02 0.0000000e+00 
1.0000628e+01 -9.7186537e-03 0.0000000e+00 
9.9971018e+00 -5.3827367e-03 0.0000000e+00 
1.0005354e+01 -1.1007917e-02 0.0000000e+00 
9.9981632e+00 -1.2836073e-03 0.0000000e+00 
9.9992161e+00 -5.8855728e-04 0.0000000e+00 
1.0015163e+01 -2.4926278e-03 0.0000000e+00 
9.9990559e+00 -8.9695649e-03 0.0000000e+00 
9.9989681e+00 -6.4047327e-04 0.0000000e+00 
1.0007408e+01 -1.0993997e-02 0.0000000e+00 
9.9970083e+00 -3.2571864e-03 0.0000000e+00 
9.9972486e+00 -2.2307774e-03 0.0000000e+00 
9.9982691e+00 -8.1201782e-03 0.0000000e+00 
1.0014000e+01 -6.4963950e-03 0.0000000e+00 
9.9987001e+00 -7.0984854e-04 0.0000000e+00 
9.9967690e+00 -4.5754891e-03 0.0000000e+00 
1.0009514e+01 -1.0681113e-02 0.0000000e+00 
9.9978056e+00 -1.4724326e-03 0.0000000e+00 
9.9973011e+00 -7.2262730e-03 0.0000000e+00 
9.9983988e+00 -7.9689472e-04 0.0000000e+00 
9.9995022e+00 -4.3025918e-04 0.0000000e+00 
1.0016771e+01 0.0000000e+00 0.0000000e+00 
1.0011768e+01 -1.0036375e-02 0.0000000e+00 
1.0015987e+01 -4.8955027e-03 0.0000000e+00 
9.9967461e+00 -2.5866642e-03 0.0000000e+00 
9.9966011e+00 -6.2795593e-03 0.0000000e+00 
9.9980564e+00 -9.0362842e-04 0.0000000e+00 
9.9964828e+00 -3.7907530e-03 0.0000000e+00 
9.9973936e+00 -1.6977749e-03 0.0000000e+00 
1.0002111e+01 -1.2068948e-02 0.0000000e+00 
1.0000750e+01 -1.1358159e-02 0.0000000e+00 
1.0004269e+01 -1.2599465e-02 0.0000000e+00 
9.9988918e+00 -1.0481037e-02 0.0000000e+00 
9.9991999e+00 -4.1719098e-04 0.0000000e+00 
1.0014071e+01 -9.0169143e-03 0.0000000e+00 
1.0006275e+01 -1.2866958e-02 0.0000000e+00 
9.9962130e+00 -5.3356569e-03 0.0000000e+00 
9.9979811e+00 -9.4863335e-03 0.0000000e+00 
9.9976664e+00 -1.0327474e-03 0.0000000e+00 
9.9989519e+00 -4.5306794e-04 0.0000000e+00 
1.0017749e+01 -2.9119970e-03 0.0000000e+00 
1.0008679e+01 -1.2850375e-02 0.0000000e+00 
9.9968395e+00 -8.4401742e-03 0.0000000e+00 
9.9961605e+00 -3.0068511e-03 0.0000000e+00 
9.9969177e+00 -1.9651949e-03 0.0000000e+00 
9.9986982e+00 -5.0719397e-04 0.0000000e+00 
1.0016386e+01 -7.5905542e-03 0.0000000e+00 
1.0011143e+01 -1.2483861e-02 0.0000000e+00 
9.9958715e+00 -4.4187931e-03 0.0000000e+00 
9.9972181e+00 -1.1874845e-03 0.0000000e+00 
9.9960175e+00 -7.3322752e-03 0.0000000e+00 
9.9984150e+00 -5.7334726e-04 0.0000000e+00 
9.9993753e+00 -2.3141036e-04 0.0000000e+00 
1.0019619e+01 -8.2718061e-25 0.0000000e+00 
1.0013779e+01 -1.1729178e-02 0.0000000e+00 
1.0018706e+01 -5.7196845e-03 0.0000000e+00 
9.9955664e+00 -6.2285461e-03 0.0000000e+00 
1.0000893e+01 -1.3279030e-02 0.0000000e+00 
9.9963665e+00 -2.2812767e-03 0.0000000e+00 
1.0002476e+01 -1.4110281e-02 0.0000000e+00 
9.9980965e+00 -6.5444165e-04 0.0000000e+00 
9.9987001e+00 -1.2252463e-02 0.0000000e+00 
9.9954786e+00 -3.5017759e-03 0.0000000e+00 
1.0005009e+01 -1.4730663e-02 0.0000000e+00 
9.9967012e+00 -1.3716880e-03 0.0000000e+00 
9.9991398e+00 -1.9500485e-04 0.0000000e+00 
9.9976463e+00 -1.1087868e-02 0.0000000e+00 
9.9988575e+00 -2.0779694e-04 0.0000000e+00 
1.0016470e+01 -1.0536527e-02 0.0000000e+00 
1.0007355e+01 -1.5042576e-02 0.0000000e+00 
9.9963017e+00 -9.8635620e-03 0.0000000e+00 
9.9951591e+00 -5.1569990e-03 0.0000000e+00 
9.9985466e+00 -2.2795254e-04 0.0000000e+00 
9.9977369e+00 -7.5255585e-04 0.0000000e+00 
1.0010168e+01 -1.5021863e-02 0.0000000e+00 
1.0020770e+01 -3.4016115e-03 0.0000000e+00 
9.9953365e+00 -8.5671786e-03 0.0000000e+00 
9.9982023e+00 -2.5655335e-04 0.0000000e+00 
9.9957266e+00 -2.6537862e-03 0.0000000e+00 
9.9961033e+00 -1.5899262e-03 0.0000000e+00 
1.0019176e+01 -8.8684419e-03 0.0000000e+00 
1.0013049e+01 -1.4591557e-02 0.0000000e+00 
9.9946804e+00 -4.0837307e-03 0.0000000e+00 
9.9948120e+00 -7.2765076e-03 0.0000000e+00 
9.9973278e+00 -8.7030407e-04 0.0000000e+00 
9.9978113e+00 -2.9218648e-04 0.0000000e+00 
9.9994783e+00 3.7189550e-06 0.0000000e+00 
1.0022944e+01 -8.2718061e-25 0.0000000e+00 
1.0001063e+01 -1.5529064e-02 0.0000000e+00 
9.9984760e+00 -1.4328075e-02 0.0000000e+00 
1.0016129e+01 -1.3707264e-02 0.0000000e+00 
1.0002904e+01 -1.6500613e-02 0.0000000e+00 
9.9972553e+00 -1.2964829e-02 0.0000000e+00 
1.0021882e+01 -6.6818302e-03 0.0000000e+00 
9.9943285e+00 -6.0238373e-03 0.0000000e+00 
9.9973631e+00 -3.3592971e-04 0.0000000e+00 
9.9991331e+00 2.6924103e-05 0.0000000e+00 
1.0005877e+01 -1.7225198e-02 0.0000000e+00 
9.9954090e+00 -1.8476044e-03 0.0000000e+00 
9.9956722e+00 -1.1531993e-02 0.0000000e+00 
9.9949808e+00 -3.0918594e-03 0.0000000e+00 
9.9968615e+00 -1.0108540e-03 0.0000000e+00 
9.9988842e+00 3.0600233e-05 0.0000000e+00 
1.0008618e+01 -1.7587943e-02 0.0000000e+00 
1.0019274e+01 -1.2311237e-02 0.0000000e+00 
9.9945421e+00 -1.0015201e-02 0.0000000e+00 
9.9986095e+00 3.5452413e-05 0.0000000e+00 
9.9937468e+00 -4.7671688e-03 0.0000000e+00 
9.9968452e+00 -3.8912933e-04 0.0000000e+00 
1.0011911e+01 -1.7561050e-02 0.0000000e+00 
1.0024300e+01 -3.9728419e-03 0.0000000e+00 
9.9939327e+00 -8.5058445e-03 0.0000000e+00 
9.9982977e+00 4.1221811e-05 0.0000000e+00 
9.9946032e+00 -2.1511000e-03 0.0000000e+00 
9.9963284e+00 -1.1780058e-03 0.0000000e+00 
1.0022437e+01 -1.0359972e-02 0.0000000e+00 
1.0015279e+01 -1.7054727e-02 0.0000000e+00 
9.9933586e+00 -7.0410231e-03 0.0000000e+00 
9.9941111e+00 -3.6062237e-03 0.0000000e+00 
9.9962425e+00 -4.5342863e-04 0.0000000e+00 
9.9979429e+00 4.7931826e-05 0.0000000e+00 
9.9982147e+00 -1.6759824e-02 0.0000000e+00 
1.0001266e+01 -1.8164324e-02 0.0000000e+00 
9.9968004e+00 -1.5164293e-02 0.0000000e+00 
1.0003407e+01 -1.9299181e-02 0.0000000e+00 
9.9991474e+00 2.3600564e-04 0.0000000e+00 
9.9949379e+00 -1.3487267e-02 0.0000000e+00 
1.0018881e+01 -1.6017513e-02 0.0000000e+00 
9.9993792e+00 2.2988774e-04 0.0000000e+00 
1.0026828e+01 -8.2718061e-25 0.0000000e+00 
9.9988718e+00 2.6028260e-04 0.0000000e+00 
1.0006895e+01 -2.0144401e-02 0.0000000e+00 
9.9926538e+00 -5.5690701e-03 0.0000000e+00 
1.0025592e+01 -7.8042396e-03 0.0000000e+00 
9.9936161e+00 -1.1712736e-02 0.0000000e+00 
9.9975357e+00 5.5695782e-05 0.0000000e+00 
9.9957190e+00 -1.3763001e-03 0.0000000e+00 
9.9985685e+00 2.9031240e-04 0.0000000e+00 
9.9936657e+00 -2.5079218e-03 0.0000000e+00 
9.9955406e+00 -5.3082866e-04 0.0000000e+00 
1.0010101e+01 -2.0565068e-02 0.0000000e+00 
9.9929075e+00 -9.9475188e-03 0.0000000e+00 
1.0022552e+01 -1.4382594e-02 0.0000000e+00 
9.9982309e+00 3.2909159e-04 0.0000000e+00 
9.9930964e+00 -4.2094560e-03 0.0000000e+00 
1.0013954e+01 -2.0529108e-02 0.0000000e+00 
9.9970646e+00 6.4685548e-05 0.0000000e+00 
9.9922247e+00 -8.2340911e-03 0.0000000e+00 
1.0028423e+01 -4.6387659e-03 0.0000000e+00 
9.9978476e+00 3.7626698e-04 0.0000000e+00 
9.9950199e+00 -1.6111491e-03 0.0000000e+00 
9.9947186e+00 -6.2376197e-04 0.0000000e+00 
1.0017891e+01 -1.9931976e-02 0.0000000e+00 
1.0026247e+01 -1.2099624e-02 0.0000000e+00 
9.9979105e+00 -1.9608755e-02 0.0000000e+00 
9.9962702e+00 -1.7741628e-02 0.0000000e+00 
9.9913712e+00 -6.5093725e-03 0.0000000e+00 
1.0001508e+01 -2.1250574e-02 0.0000000e+00 
9.9925747e+00 -2.9268991e-03 0.0000000e+00 
9.9974089e+00 4.3316439e-04 0.0000000e+00 
9.9940796e+00 -1.5778555e-02 0.0000000e+00 
9.9965172e+00 7.5117343e-05 0.0000000e+00 