# vtk DataFile Version 4.0
vtk output
ASCII
DATASET UNSTRUCTURED_GRID
POINTS 3806 float
2.0000000e+01 1.0000000e+01 0.0000000e+00 
1.9750000e+01 1.0000000e+01 0.0000000e+00 
2.0000000e+01 9.7500000e+00 0.0000000e+00 
1.9625000e+01 9.7427902e+00 0.0000000e+00 
2.0000000e+01 9.5000000e+00 0.0000000e+00 
1.9500000e+01 1.0000000e+01 0.0000000e+00 
1.9750000e+01 9.5262804e+00 0.0000000e+00 
1.9375000e+01 9.7427902e+00 0.0000000e+00 
1.9500000e+01 9.5262804e+00 0.0000000e+00 
1.9250000e+01 1.0000000e+01 0.0000000e+00 
2.0000000e+01 9.2500000e+00 0.0000000e+00 
1.9645800e+01 9.2998104e+00 0.0000000e+00 
1.9250000e+01 9.5262804e+00 0.0000000e+00 
1.9125000e+01 9.7427902e+00 0.0000000e+00 
1.9375000e+01 9.3097696e+00 0.0000000e+00 
1.9750000e+01 9.0932703e+00 0.0000000e+00 
2.0000000e+01 9.0000000e+00 0.0000000e+00 
1.9000000e+01 1.0000000e+01 0.0000000e+00 
1.9500000e+01 9.0932703e+00 0.0000000e+00 
1.9000000e+01 9.5262804e+00 0.0000000e+00 
1.9125000e+01 9.3097696e+00 0.0000000e+00 
1.8875000e+01 9.7427902e+00 0.0000000e+00 
1.9696400e+01 8.8762598e+00 0.0000000e+00 
1.9250000e+01 9.0932703e+00 0.0000000e+00 
2.0000000e+01 8.7500000e+00 0.0000000e+00 
1.8750000e+01 1.0000000e+01 0.0000000e+00 
1.9375000e+01 8.8767595e+00 0.0000000e+00 
1.8875000e+01 9.3097696e+00 0.0000000e+00 
1.8750000e+01 9.5262804e+00 0.0000000e+00 
1.9000000e+01 9.0932703e+00 0.0000000e+00 
1.9750000e+01 8.6602497e+00 0.0000000e+00 
1.8625000e+01 9.7427902e+00 0.0000000e+00 
1.9125000e+01 8.8767595e+00 0.0000000e+00 
1.9500000e+01 8.6602497e+00 0.0000000e+00 
2.0000000e+01 8.5000000e+00 0.0000000e+00 
1.8500000e+01 1.0000000e+01 0.0000000e+00 
1.9250000e+01 8.6602497e+00 0.0000000e+00 
1.8625000e+01 9.3097696e+00 0.0000000e+00 
1.8750000e+01 9.0932703e+00 0.0000000e+00 
1.8500000e+01 9.5262804e+00 0.0000000e+00 
1.9645800e+01 8.4531202e+00 0.0000000e+00 
1.8875000e+01 8.8767595e+00 0.0000000e+00 
1.8375000e+01 9.7427902e+00 0.0000000e+00 
1.9000000e+01 8.6602497e+00 0.0000000e+00 
1.9375000e+01 8.4437504e+00 0.0000000e+00 
2.0000000e+01 8.2500000e+00 0.0000000e+00 
1.8250000e+01 1.0000000e+01 0.0000000e+00 
1.8500000e+01 9.0932703e+00 0.0000000e+00 
1.8375000e+01 9.3097696e+00 0.0000000e+00 
1.8625000e+01 8.8767595e+00 0.0000000e+00 
1.9125000e+01 8.4437504e+00 0.0000000e+00 
1.9750000e+01 8.2272396e+00 0.0000000e+00 
1.8250000e+01 9.5262804e+00 0.0000000e+00 
1.8750000e+01 8.6602497e+00 0.0000000e+00 
1.9500000e+01 8.2272396e+00 0.0000000e+00 
1.8125000e+01 9.7427902e+00 0.0000000e+00 
1.8875000e+01 8.4437504e+00 0.0000000e+00 
1.9250000e+01 8.2272396e+00 0.0000000e+00 
1.8250000e+01 9.0932703e+00 0.0000000e+00 
1.8375000e+01 8.8767595e+00 0.0000000e+00 
1.8125000e+01 9.3097696e+00 0.0000000e+00 
2.0000000e+01 8.0000000e+00 0.0000000e+00 
1.8000000e+01 1.0000000e+01 0.0000000e+00 
1.8500000e+01 8.6602497e+00 0.0000000e+00 
1.9625000e+01 8.0107298e+00 0.0000000e+00 
1.9000000e+01 8.2272396e+00 0.0000000e+00 
1.8000000e+01 9.5262804e+00 0.0000000e+00 
1.8625000e+01 8.4437504e+00 0.0000000e+00 
1.9375000e+01 8.0107298e+00 0.0000000e+00 
1.7875000e+01 9.7834902e+00 0.0000000e+00 
1.8750000e+01 8.2272396e+00 0.0000000e+00 
1.9125000e+01 8.0107298e+00 0.0000000e+00 
1.8125000e+01 8.8767595e+00 0.0000000e+00 
1.8000000e+01 9.0932703e+00 0.0000000e+00 
1.8250000e+01 8.6602497e+00 0.0000000e+00 
1.9750000e+01 7.7942300e+00 0.0000000e+00 
1.7875000e+01 9.3097696e+00 0.0000000e+00 
2.0000000e+01 7.7500000e+00 0.0000000e+00 
1.7750000e+01 1.0000000e+01 0.0000000e+00 
1.8375000e+01 8.4437504e+00 0.0000000e+00 
1.9500000e+01 7.7942300e+00 0.0000000e+00 
1.8875000e+01 8.0107298e+00 0.0000000e+00 
1.7750000e+01 9.5262804e+00 0.0000000e+00 
1.8500000e+01 8.2272396e+00 0.0000000e+00 
1.9250000e+01 7.7942300e+00 0.0000000e+00 
1.7625000e+01 9.7834902e+00 0.0000000e+00 
1.7875000e+01 8.8767595e+00 0.0000000e+00 
1.8000000e+01 8.6602497e+00 0.0000000e+00 
1.8625000e+01 8.0107298e+00 0.0000000e+00 
1.9000000e+01 7.7942300e+00 0.0000000e+00 
1.7750000e+01 9.0932703e+00 0.0000000e+00 
1.8125000e+01 8.4437504e+00 0.0000000e+00 
1.9645800e+01 7.5647702e+00 0.0000000e+00 
1.7625000e+01 9.3097696e+00 0.0000000e+00 
1.8250000e+01 8.2272396e+00 0.0000000e+00 
2.0000000e+01 7.5000000e+00 0.0000000e+00 
1.7500000e+01 1.0000000e+01 0.0000000e+00 
1.9375000e+01 7.5777202e+00 0.0000000e+00 
1.8750000e+01 7.7942300e+00 0.0000000e+00 
1.7500000e+01 9.5262804e+00 0.0000000e+00 
1.8375000e+01 8.0107298e+00 0.0000000e+00 
1.9125000e+01 7.5777202e+00 0.0000000e+00 
1.7750000e+01 8.6602497e+00 0.0000000e+00 
1.7625000e+01 8.8767595e+00 0.0000000e+00 
1.7875000e+01 8.4437504e+00 0.0000000e+00 
1.7375000e+01 9.7427902e+00 0.0000000e+00 
1.9768499e+01 7.3630099e+00 0.0000000e+00 
1.7500000e+01 9.0932703e+00 0.0000000e+00 
1.8500000e+01 7.7942300e+00 0.0000000e+00 
1.8875000e+01 7.5777202e+00 0.0000000e+00 
1.8000000e+01 8.2272396e+00 0.0000000e+00 
1.9500000e+01 7.3612199e+00 0.0000000e+00 
1.7375000e+01 9.3097696e+00 0.0000000e+00 
1.8125000e+01 8.0107298e+00 0.0000000e+00 
1.9250000e+01 7.3612199e+00 0.0000000e+00 
2.0000000e+01 7.2500000e+00 0.0000000e+00 
1.7250000e+01 1.0000000e+01 0.0000000e+00 
1.8625000e+01 7.5777202e+00 0.0000000e+00 
1.7250000e+01 9.5262804e+00 0.0000000e+00 
1.8250000e+01 7.7942300e+00 0.0000000e+00 
1.9000000e+01 7.3612199e+00 0.0000000e+00 
1.7500000e+01 8.6602497e+00 0.0000000e+00 
1.7625000e+01 8.4437504e+00 0.0000000e+00 
1.7375000e+01 8.8767595e+00 0.0000000e+00 
1.7750000e+01 8.2272396e+00 0.0000000e+00 
1.9696400e+01 7.1390800e+00 0.0000000e+00 
1.7125000e+01 9.7427902e+00 0.0000000e+00 
1.7250000e+01 9.0932703e+00 0.0000000e+00 
1.7875000e+01 8.0107298e+00 0.0000000e+00 
1.8375000e+01 7.5777202e+00 0.0000000e+00 
1.8750000e+01 7.3612199e+00 0.0000000e+00 
1.9375000e+01 7.1447101e+00 0.0000000e+00 
1.7125000e+01 9.3097696e+00 0.0000000e+00 
1.8000000e+01 7.7942300e+00 0.0000000e+00 
1.9125000e+01 7.1447101e+00 0.0000000e+00 
2.0000000e+01 7.0000000e+00 0.0000000e+00 
1.7000000e+01 1.0000000e+01 0.0000000e+00 
1.8500000e+01 7.3612199e+00 0.0000000e+00 
1.7000000e+01 9.5262804e+00 0.0000000e+00 
1.7375000e+01 8.4437504e+00 0.0000000e+00 
1.7250000e+01 8.6602497e+00 0.0000000e+00 
1.8125000e+01 7.5777202e+00 0.0000000e+00 
1.7500000e+01 8.2272396e+00 0.0000000e+00 
1.8875000e+01 7.1447101e+00 0.0000000e+00 
1.9750000e+01 6.9281998e+00 0.0000000e+00 
1.7125000e+01 8.8767595e+00 0.0000000e+00 
1.7625000e+01 8.0107298e+00 0.0000000e+00 
1.9500000e+01 6.9281998e+00 0.0000000e+00 
1.7000000e+01 9.0932703e+00 0.0000000e+00 
1.6875000e+01 9.7427902e+00 0.0000000e+00 
1.7750000e+01 7.7942300e+00 0.0000000e+00 
1.9250000e+01 6.9281998e+00 0.0000000e+00 
1.8250000e+01 7.3612199e+00 0.0000000e+00 
1.8625000e+01 7.1447101e+00 0.0000000e+00 
1.6875000e+01 9.3097696e+00 0.0000000e+00 
1.7875000e+01 7.5777202e+00 0.0000000e+00 
1.9000000e+01 6.9281998e+00 0.0000000e+00 
2.0000000e+01 6.7500000e+00 0.0000000e+00 
1.6750000e+01 1.0000000e+01 0.0000000e+00 
1.7125000e+01 8.4437504e+00 0.0000000e+00 
1.7250000e+01 8.2272396e+00 0.0000000e+00 
1.6750000e+01 9.5262804e+00 0.0000000e+00 
1.8375000e+01 7.1447101e+00 0.0000000e+00 
1.7000000e+01 8.6602497e+00 0.0000000e+00 
1.7375000e+01 8.0107298e+00 0.0000000e+00 
1.9645800e+01 6.7180800e+00 0.0000000e+00 
1.8000000e+01 7.3612199e+00 0.0000000e+00 
1.8750000e+01 6.9281998e+00 0.0000000e+00 
1.6875000e+01 8.8767595e+00 0.0000000e+00 
1.7500000e+01 7.7942300e+00 0.0000000e+00 
1.9375000e+01 6.7117000e+00 0.0000000e+00 
1.6750000e+01 9.0932703e+00 0.0000000e+00 
1.6625000e+01 9.7427902e+00 0.0000000e+00 
1.7625000e+01 7.5777202e+00 0.0000000e+00 
1.9125000e+01 6.7117000e+00 0.0000000e+00 
1.8125000e+01 7.1447101e+00 0.0000000e+00 
1.8500000e+01 6.9281998e+00 0.0000000e+00 
1.6625000e+01 9.3097696e+00 0.0000000e+00 
1.7750000e+01 7.3612199e+00 0.0000000e+00 
1.8875000e+01 6.7117000e+00 0.0000000e+00 
1.7000000e+01 8.2272396e+00 0.0000000e+00 
1.6875000e+01 8.4437504e+00 0.0000000e+00 
1.7125000e+01 8.0107298e+00 0.0000000e+00 
2.0000000e+01 6.5000000e+00 0.0000000e+00 
1.6500000e+01 1.0000000e+01 0.0000000e+00 
1.9750000e+01 6.4951901e+00 0.0000000e+00 
1.6750000e+01 8.6602497e+00 0.0000000e+00 
1.7250000e+01 7.7942300e+00 0.0000000e+00 
1.6500000e+01 9.5262804e+00 0.0000000e+00 
1.8250000e+01 6.9281998e+00 0.0000000e+00 
1.9500000e+01 6.4951901e+00 0.0000000e+00 
1.6625000e+01 8.8767595e+00 0.0000000e+00 
1.7875000e+01 7.1447101e+00 0.0000000e+00 
1.8625000e+01 6.7117000e+00 0.0000000e+00 
1.7375000e+01 7.5777202e+00 0.0000000e+00 
1.9250000e+01 6.4951901e+00 0.0000000e+00 
1.6500000e+01 9.0932703e+00 0.0000000e+00 
1.6375000e+01 9.7427902e+00 0.0000000e+00 
1.7500000e+01 7.3612199e+00 0.0000000e+00 
1.9000000e+01 6.4951901e+00 0.0000000e+00 
1.8000000e+01 6.9281998e+00 0.0000000e+00 
1.8375000e+01 6.7117000e+00 0.0000000e+00 
1.6375000e+01 9.3097696e+00 0.0000000e+00 
1.6750000e+01 8.2272396e+00 0.0000000e+00 
1.6875000e+01 8.0107298e+00 0.0000000e+00 
1.7625000e+01 7.1447101e+00 0.0000000e+00 
1.6625000e+01 8.4437504e+00 0.0000000e+00 
1.8750000e+01 6.4951901e+00 0.0000000e+00 
1.7000000e+01 7.7942300e+00 0.0000000e+00 
1.9625000e+01 6.2786798e+00 0.0000000e+00 
1.6500000e+01 8.6602497e+00 0.0000000e+00 
2.0000000e+01 6.2500000e+00 0.0000000e+00 
1.6250000e+01 1.0000000e+01 0.0000000e+00 
1.7125000e+01 7.5777202e+00 0.0000000e+00 
1.9375000e+01 6.2786798e+00 0.0000000e+00 
1.6250000e+01 9.5262804e+00 0.0000000e+00 
1.8125000e+01 6.7117000e+00 0.0000000e+00 
1.6375000e+01 8.8767595e+00 0.0000000e+00 
1.7750000e+01 6.9281998e+00 0.0000000e+00 
1.7250000e+01 7.3612199e+00 0.0000000e+00 
1.8500000e+01 6.4951901e+00 0.0000000e+00 
1.9125000e+01 6.2786798e+00 0.0000000e+00 
1.6250000e+01 9.0932703e+00 0.0000000e+00 
1.7375000e+01 7.1447101e+00 0.0000000e+00 
1.6125000e+01 9.7427902e+00 0.0000000e+00 
[...]
POINT_DATA 3806
FIELD FieldData 2
VELOCITY 3 3806  float
1.0000458e+01 9.4350289e-25 0.0000000e+00 
1.0000585e+01 -2.3264455e-24 0.0000000e+00 
1.0000446e+01 -1.2289977e-04 0.0000000e+00 
1.0000644e+01 -1.4703249e-04 0.0000000e+00 
1.0000434e+01 -2.4424098e-04 0.0000000e+00 
1.0000731e+01 -4.5494934e-24 0.0000000e+00 
1.0000557e+01 -2.5465884e-04 0.0000000e+00 
1.0000793e+01 -1.6582984e-04 0.0000000e+00 
1.0000695e+01 -2.8430298e-04 0.0000000e+00 
1.0000894e+01 -4.5494934e-24 0.0000000e+00 
1.0000405e+01 -3.5634244e-04 0.0000000e+00 
1.0000582e+01 -3.8567433e-04 0.0000000e+00 
1.0000851e+01 -3.2101598e-04 0.0000000e+00 
1.0000963e+01 -1.8826417e-04 0.0000000e+00 
1.0000732e+01 -4.3241560e-04 0.0000000e+00 
1.0000490e+01 -4.6695000e-04 0.0000000e+00 
1.0000368e+01 -4.6400513e-04 0.0000000e+00 
1.0001078e+01 6.2038546e-25 0.0000000e+00 
1.0000612e+01 -5.2350084e-04 0.0000000e+00 
1.0001027e+01 -3.6582534e-04 0.0000000e+00 
1.0000888e+01 -4.9093855e-04 0.0000000e+00 
1.0001156e+01 -2.1526866e-04 0.0000000e+00 
1.0000466e+01 -5.7383225e-04 0.0000000e+00 
1.0000749e+01 -5.9089169e-04 0.0000000e+00 
1.0000322e+01 -5.5857294e-04 0.0000000e+00 
1.0001288e+01 6.2038546e-25 0.0000000e+00 
1.0000615e+01 -6.6742784e-04 0.0000000e+00 
1.0001066e+01 -5.6140526e-04 0.0000000e+00 
1.0001228e+01 -4.1961615e-04 0.0000000e+00 
1.0000904e+01 -6.7335682e-04 0.0000000e+00 
1.0000389e+01 -6.4683810e-04 0.0000000e+00 
1.0001377e+01 -2.4749772e-04 0.0000000e+00 
1.0000746e+01 -7.5803173e-04 0.0000000e+00 
1.0000485e+01 -7.2376232e-04 0.0000000e+00 
1.0000269e+01 -6.3528749e-04 0.0000000e+00 
1.0001531e+01 6.2038546e-25 0.0000000e+00 
1.0000594e+01 -8.1745326e-04 0.0000000e+00 
1.0001270e+01 -6.4565323e-04 0.0000000e+00 
1.0001081e+01 -7.7237963e-04 0.0000000e+00 
1.0001460e+01 -4.8384344e-04 0.0000000e+00 
1.0000362e+01 -7.4821891e-04 0.0000000e+00 
1.0000896e+01 -8.6677342e-04 0.0000000e+00 
1.0001633e+01 -2.8553235e-04 0.0000000e+00 
1.0000716e+01 -9.3144755e-04 0.0000000e+00 
1.0000452e+01 -8.5407391e-04 0.0000000e+00 
1.0000208e+01 -7.0723431e-04 0.0000000e+00 
1.0001810e+01 -2.8951321e-24 0.0000000e+00 
1.0001285e+01 -8.9035917e-04 0.0000000e+00 
1.0001506e+01 -7.4576103e-04 0.0000000e+00 
1.0001067e+01 -9.9685218e-04 0.0000000e+00 
1.0000549e+01 -9.6950179e-04 0.0000000e+00 
1.0000258e+01 -7.8025437e-04 0.0000000e+00 
1.0001727e+01 -5.6006940e-04 0.0000000e+00 
1.0000856e+01 -1.0683916e-03 0.0000000e+00 
1.0000323e+01 -8.7120605e-04 0.0000000e+00 
1.0001929e+01 -3.3017647e-04 0.0000000e+00 
1.0000659e+01 -1.1086378e-03 0.0000000e+00 
1.0000395e+01 -9.8397350e-04 0.0000000e+00 
1.0001520e+01 -1.0303018e-03 0.0000000e+00 
1.0001265e+01 -1.1514458e-03 0.0000000e+00 
1.0001778e+01 -8.6411525e-04 0.0000000e+00 
1.0000142e+01 -7.4801192e-04 0.0000000e+00 
1.0002131e+01 -2.8951321e-24 0.0000000e+00 
1.0001018e+01 -1.2316271e-03 0.0000000e+00 
1.0000210e+01 -8.6837437e-04 0.0000000e+00 
1.0000476e+01 -1.1212175e-03 0.0000000e+00 
1.0002037e+01 -6.5131637e-04 0.0000000e+00 
1.0000785e+01 -1.2750647e-03 0.0000000e+00 
1.0000257e+01 -9.7786216e-04 0.0000000e+00 
1.0002281e+01 -3.2413341e-04 0.0000000e+00 
1.0000569e+01 -1.2860944e-03 0.0000000e+00 
1.0000312e+01 -1.1098569e-03 0.0000000e+00 
1.0001493e+01 -1.3343144e-03 0.0000000e+00 
1.0001793e+01 -1.1953360e-03 0.0000000e+00 
1.0001204e+01 -1.4251317e-03 0.0000000e+00 
1.0000109e+01 -8.5492438e-04 0.0000000e+00 
1.0002093e+01 -1.0034952e-03 0.0000000e+00 
1.0000074e+01 -7.8350143e-04 0.0000000e+00 
1.0002510e+01 -2.4815418e-24 0.0000000e+00 
1.0000931e+01 -1.4728652e-03 0.0000000e+00 
1.0000135e+01 -9.5468719e-04 0.0000000e+00 
1.0000375e+01 -1.2692115e-03 0.0000000e+00 
1.0002397e+01 -7.5568119e-04 0.0000000e+00 
1.0000676e+01 -1.4826400e-03 0.0000000e+00 
1.0000166e+01 -1.0782251e-03 0.0000000e+00 
1.0002681e+01 -3.7895772e-04 0.0000000e+00 
1.0001760e+01 -1.5499897e-03 0.0000000e+00 
1.0001420e+01 -1.6536652e-03 0.0000000e+00 
1.0000446e+01 -1.4598267e-03 0.0000000e+00 
1.0000200e+01 -1.2286906e-03 0.0000000e+00 
1.0002110e+01 -1.3897181e-03 0.0000000e+00 
1.0001099e+01 -1.7068955e-03 0.0000000e+00 
1.0000031e+01 -9.0592494e-04 0.0000000e+00 
1.0002461e+01 -1.1681513e-03 0.0000000e+00 
1.0000800e+01 -1.7156798e-03 0.0000000e+00 
1.0000003e+01 -7.8601099e-04 0.0000000e+00 
1.0002951e+01 -1.6543612e-24 0.0000000e+00 
1.0000045e+01 -1.0294847e-03 0.0000000e+00 
1.0000239e+01 -1.4094458e-03 0.0000000e+00 
1.0002813e+01 -8.7795046e-04 0.0000000e+00 
1.0000528e+01 -1.6863926e-03 0.0000000e+00 
1.0000053e+01 -1.1687648e-03 0.0000000e+00 
1.0001671e+01 -1.9228347e-03 0.0000000e+00 
1.0002068e+01 -1.8036789e-03 0.0000000e+00 
1.0001295e+01 -1.9828880e-03 0.0000000e+00 
1.0003136e+01 -5.2227534e-04 0.0000000e+00 
9.9999533e+00 -8.5749675e-04 0.0000000e+00 
1.0002478e+01 -1.6184562e-03 0.0000000e+00 
1.0000284e+01 -1.6249341e-03 0.0000000e+00 
1.0000063e+01 -1.3366445e-03 0.0000000e+00 
1.0000943e+01 -1.9909341e-03 0.0000000e+00 
9.9999390e+00 -9.6781604e-04 0.0000000e+00 
1.0002890e+01 -1.3611240e-03 0.0000000e+00 
1.0000625e+01 -1.9544808e-03 0.0000000e+00 
9.9999256e+00 -1.0933055e-03 0.0000000e+00 
9.9999313e+00 -7.8036101e-04 0.0000000e+00 
1.0003460e+01 -1.6543612e-24 0.0000000e+00 
1.0000074e+01 -1.5374674e-03 0.0000000e+00 
1.0003300e+01 -1.0248740e-03 0.0000000e+00 
1.0000336e+01 -1.8804577e-03 0.0000000e+00 
9.9999104e+00 -1.2459622e-03 0.0000000e+00 
1.0001963e+01 -2.2391963e-03 0.0000000e+00 
1.0001522e+01 -2.3076111e-03 0.0000000e+00 
1.0002428e+01 -2.1016181e-03 0.0000000e+00 
1.0001110e+01 -2.3151557e-03 0.0000000e+00 
9.9998674e+00 -8.6321140e-04 0.0000000e+00 
1.0003678e+01 -6.0867087e-04 0.0000000e+00 
1.0002908e+01 -1.8866656e-03 0.0000000e+00 
1.0000735e+01 -2.2706822e-03 0.0000000e+00 
1.0000088e+01 -1.7761902e-03 0.0000000e+00 
9.9998922e+00 -1.4293649e-03 0.0000000e+00 
9.9998264e+00 -1.0051958e-03 0.0000000e+00 
1.0003389e+01 -1.5871257e-03 0.0000000e+00 
1.0000396e+01 -2.1823046e-03 0.0000000e+00 
9.9997883e+00 -1.1418476e-03 0.0000000e+00 
9.9998636e+00 -7.5274357e-04 0.0000000e+00 
1.0004054e+01 -9.9261674e-24 0.0000000e+00 
9.9998713e+00 -1.6480145e-03 0.0000000e+00 
1.0003868e+01 -1.1955805e-03 0.0000000e+00 
1.0001787e+01 -2.6890086e-03 0.0000000e+00 
1.0002303e+01 -2.6104983e-03 0.0000000e+00 
1.0000104e+01 -2.0586986e-03 0.0000000e+00 
1.0001304e+01 -2.6962974e-03 0.0000000e+00 
9.9997454e+00 -1.3058622e-03 0.0000000e+00 
9.9997988e+00 -8.1282936e-04 0.0000000e+00 
1.0002848e+01 -2.4510545e-03 0.0000000e+00 
1.0000865e+01 -2.6427661e-03 0.0000000e+00 
9.9997492e+00 -9.1030338e-04 0.0000000e+00 
1.0003408e+01 -2.2010223e-03 0.0000000e+00 
1.0004311e+01 -7.1044185e-04 0.0000000e+00 
1.0000466e+01 -2.5379017e-03 0.0000000e+00 
9.9996920e+00 -1.0280614e-03 0.0000000e+00 
9.9998474e+00 -1.9073081e-03 0.0000000e+00 
9.9996967e+00 -1.5021173e-03 0.0000000e+00 
1.0003971e+01 -1.8520823e-03 0.0000000e+00 
1.0000123e+01 -2.3919558e-03 0.0000000e+00 
9.9996281e+00 -1.1717179e-03 0.0000000e+00 
9.9997969e+00 -7.0074433e-04 0.0000000e+00 
1.0004748e+01 -9.9261674e-24 0.0000000e+00 
1.0002096e+01 -3.1364013e-03 0.0000000e+00 
1.0001531e+01 -3.1436947e-03 0.0000000e+00 
1.0004531e+01 -1.3954870e-03 0.0000000e+00 
9.9996395e+00 -1.7354400e-03 0.0000000e+00 
1.0002701e+01 -3.0457776e-03 0.0000000e+00 
1.0001016e+01 -3.0798693e-03 0.0000000e+00 
9.9997005e+00 -8.0044841e-04 0.0000000e+00 
9.9998198e+00 -2.2136457e-03 0.0000000e+00 
9.9995546e+00 -1.3442835e-03 0.0000000e+00 
1.0003337e+01 -2.8604663e-03 0.0000000e+00 
1.0000547e+01 -2.9559971e-03 0.0000000e+00 
9.9996204e+00 -9.0797897e-04 0.0000000e+00 
1.0003993e+01 -2.5691851e-03 0.0000000e+00 
1.0005048e+01 -8.2943722e-04 0.0000000e+00 
1.0000145e+01 -2.7841763e-03 0.0000000e+00 
9.9995394e+00 -1.0309352e-03 0.0000000e+00 
9.9995747e+00 -2.0115899e-03 0.0000000e+00 
9.9994698e+00 -1.5500209e-03 0.0000000e+00 
1.0004651e+01 -2.1622668e-03 0.0000000e+00 
9.9997873e+00 -2.5745896e-03 0.0000000e+00 
9.9994469e+00 -1.1791292e-03 0.0000000e+00 
1.0001795e+01 -3.6682992e-03 0.0000000e+00 
1.0002458e+01 -3.6607122e-03 0.0000000e+00 
1.0001192e+01 -3.5927184e-03 0.0000000e+00 
9.9997368e+00 -6.4316840e-04 0.0000000e+00 
1.0005559e+01 -3.3087225e-24 0.0000000e+00 
9.9996614e+00 -7.0339680e-04 0.0000000e+00 
1.0003164e+01 -3.5556334e-03 0.0000000e+00 
1.0000643e+01 -3.4468728e-03 0.0000000e+00 
1.0005304e+01 -1.6294036e-03 0.0000000e+00 
9.9993725e+00 -1.7940248e-03 0.0000000e+00 
9.9995766e+00 -7.8548188e-04 0.0000000e+00 
1.0003908e+01 -3.3398101e-03 0.0000000e+00 
9.9994984e+00 -2.3373903e-03 0.0000000e+00 
9.9993401e+00 -1.3564214e-03 0.0000000e+00 
1.0000171e+01 -3.2450270e-03 0.0000000e+00 
9.9994802e+00 -8.8727445e-04 0.0000000e+00 
1.0004675e+01 -3.0000615e-03 0.0000000e+00 
1.0005910e+01 -9.6858863e-04 0.0000000e+00 
9.9997501e+00 -2.9990512e-03 0.0000000e+00 
9.9993725e+00 -1.0112486e-03 0.0000000e+00 
9.9992590e+00 -2.0823360e-03 0.0000000e+00 
9.9992170e+00 -1.5672053e-03 0.0000000e+00 
1.0005445e+01 -2.5251356e-03 0.0000000e+00 
1.0002103e+01 -4.2829360e-03 0.0000000e+00 
1.0001398e+01 -4.1938890e-03 0.0000000e+00 
9.9994106e+00 -2.7208948e-03 0.0000000e+00 
1.0002879e+01 -4.2747189e-03 0.0000000e+00 
9.9992485e+00 -1.1601944e-03 0.0000000e+00 
1.0000753e+01 -4.0225955e-03 0.0000000e+00 
9.9995508e+00 -6.6025020e-04 0.0000000e+00 
1.0003706e+01 -4.1524526e-03 0.0000000e+00 
9.9996824e+00 -5.5709638e-04 0.0000000e+00 
1.0006506e+01 -3.3087225e-24 0.0000000e+00 
1.0000200e+01 -3.7858661e-03 0.0000000e+00 
9.9994450e+00 -7.4380217e-04 0.0000000e+00 
1.0006208e+01 -1.9029563e-03 0.0000000e+00 
9.9990740e+00 -1.8167009e-03 0.0000000e+00 
1.0004577e+01 -3.9006886e-03 0.0000000e+00 
9.9991283e+00 -2.4220953e-03 0.0000000e+00 
9.9997072e+00 -3.4975130e-03 0.0000000e+00 
9.9991064e+00 -1.3377931e-03 0.0000000e+00 
9.9993258e+00 -8.4436359e-04 0.0000000e+00 
1.0005472e+01 -3.5040374e-03 0.0000000e+00 
9.9993086e+00 -3.1715892e-03 0.0000000e+00 
1.0006915e+01 -1.1312516e-03 0.0000000e+00 
9.9991903e+00 -9.6579461e-04 0.0000000e+00 
9.9989090e+00 -2.1110906e-03 0.0000000e+00 
9.9989424e+00 -1.5484429e-03 0.0000000e+00 
1.0001638e+01 -4.8981090e-03 0.0000000e+00 
1.0002464e+01 -5.0026099e-03 0.0000000e+00 
1.0000884e+01 -4.6973103e-03 0.0000000e+00 
1.0006372e+01 -2.9494069e-03 0.0000000e+00 
1.0003372e+01 -4.9933582e-03 0.0000000e+00 
9.9995470e+00 -5.3943507e-04 0.0000000e+00 
1.0000237e+01 -4.4200215e-03 0.0000000e+00 
9.9989758e+00 -2.8217228e-03 0.0000000e+00 
9.9990339e+00 -1.1110781e-03 0.0000000e+00 
9.9994326e+00 -6.0295779e-04 0.0000000e+00 
1.0004339e+01 -4.8506972e-03 0.0000000e+00 
9.9996567e+00 -4.0822867e-03 0.0000000e+00 
9.9996376e+00 -4.6851963e-04 0.0000000e+00 
1.0007611e+01 -3.3087225e-24 0.0000000e+00 
9.9993057e+00 -6.8121502e-04 0.0000000e+00 
1.0007264e+01 -2.2226968e-03 0.0000000e+00 
1.0005357e+01 -4.5566335e-03 0.0000000e+00 
9.9987516e+00 -1.7973670e-03 0.0000000e+00 
9.9991894e+00 -3.7006265e-03 0.0000000e+00 
9.9987164e+00 -2.4576751e-03 0.0000000e+00 
9.9988537e+00 -1.2838162e-03 0.0000000e+00 
9.9991608e+00 -7.7639363e-04 0.0000000e+00 
1.0006404e+01 -4.0932205e-03 0.0000000e+00 
9.9987974e+00 -3.2911294e-03 0.0000000e+00 
9.9989958e+00 -8.9076138e-04 0.0000000e+00 
1.0008090e+01 -1.3213131e-03 0.0000000e+00 
1.0001921e+01 -5.7226121e-03 0.0000000e+00 
1.0001036e+01 -5.4875864e-03 0.0000000e+00 
1.0002886e+01 -5.8448631e-03 0.0000000e+00 
1.0000279e+01 -5.1631187e-03 0.0000000e+00 
9.9985313e+00 -2.0907444e-03 0.0000000e+00 
9.9986458e+00 -1.4882978e-03 0.0000000e+00 
1.0003948e+01 -5.8340714e-03 0.0000000e+00 
1.0007456e+01 -3.4452332e-03 0.0000000e+00 
9.9994497e+00 -4.5314993e-04 0.0000000e+00 
9.9995975e+00 -4.7678202e-03 0.0000000e+00 
9.9993114e+00 -5.2460335e-04 0.0000000e+00 
9.9984922e+00 -2.8650581e-03 0.0000000e+00 
9.9988050e+00 -1.0271316e-03 0.0000000e+00 
1.0005079e+01 -5.6672352e-03 0.0000000e+00 
9.9990511e+00 -4.3211067e-03 0.0000000e+00 
9.9991627e+00 -5.9561327e-04 0.0000000e+00 
9.9995985e+00 -3.5762691e-04 0.0000000e+00 
1.0008903e+01 6.6174449e-24 0.0000000e+00 
1.0006269e+01 -5.3234147e-03 0.0000000e+00 
1.0008497e+01 -2.5962442e-03 0.0000000e+00 
9.9984045e+00 -1.7296058e-03 0.0000000e+00 
9.9985905e+00 -3.8419676e-03 0.0000000e+00 
9.9989939e+00 -6.8126695e-04 0.0000000e+00 
9.9982738e+00 -2.4358667e-03 0.0000000e+00 
9.9985857e+00 -1.1888827e-03 0.0000000e+00 
1.0007493e+01 -4.7817063e-03 0.0000000e+00 
1.0001215e+01 -6.4128148e-03 0.0000000e+00 
1.0002252e+01 -6.6875499e-03 0.0000000e+00 
1.0000329e+01 -6.0334648e-03 0.0000000e+00 
9.9982309e+00 -3.3433642e-03 0.0000000e+00 
1.0003380e+01 -6.8301829e-03 0.0000000e+00 
9.9988012e+00 -7.8373885e-04 0.0000000e+00 
9.9994669e+00 -3.3552200e-04 0.0000000e+00 
1.0009462e+01 -1.5432849e-03 0.0000000e+00 
9.9995289e+00 -5.5710538e-03 0.0000000e+00 
9.9993315e+00 -3.7582367e-04 0.0000000e+00 
1.0004622e+01 -6.8172086e-03 0.0000000e+00 
9.9981232e+00 -2.0137466e-03 0.0000000e+00 
9.9983311e+00 -1.3800320e-03 0.0000000e+00 
9.9988899e+00 -5.0484035e-03 0.0000000e+00 
1.0008721e+01 -4.0244195e-03 0.0000000e+00 
9.9991817e+00 -4.2485862e-04 0.0000000e+00 
9.9979744e+00 -2.8413227e-03 0.0000000e+00 
1.0005945e+01 -6.6217245e-03 0.0000000e+00 
9.9985781e+00 -9.0556877e-04 0.0000000e+00 
9.9983492e+00 -4.4879238e-03 0.0000000e+00 
9.9990110e+00 -4.8428981e-04 0.0000000e+00 
9.9995728e+00 -2.4504974e-04 0.0000000e+00 
1.0010411e+01 6.6174449e-24 0.0000000e+00 
1.0007336e+01 -6.2193889e-03 0.0000000e+00 
1.0009938e+01 -3.0324482e-03 0.0000000e+00 
9.9980345e+00 -1.6053343e-03 0.0000000e+00 
9.9979267e+00 -3.9044942e-03 0.0000000e+00 
9.9988155e+00 -5.5562402e-04 0.0000000e+00 
9.9977961e+00 -2.3478032e-03 0.0000000e+00 
9.9983196e+00 -1.0497810e-03 0.0000000e+00 
1.0001424e+01 -7.4956808e-03 0.0000000e+00 
1.0000389e+01 -7.0524965e-03 0.0000000e+00 
1.0002639e+01 -7.8164693e-03 0.0000000e+00 
9.9994497e+00 -6.5118438e-03 0.0000000e+00 
9.9993868e+00 -2.4254483e-04 0.0000000e+00 
1.0008765e+01 -5.5858833e-03 0.0000000e+00 
1.0003959e+01 -7.9824831e-03 0.0000000e+00 
9.9976254e+00 -3.3172176e-03 0.0000000e+00 
9.9987030e+00 -5.9005511e-03 0.0000000e+00 
9.9985914e+00 -6.4063893e-04 0.0000000e+00 
9.9992285e+00 -2.6687601e-04 0.0000000e+00 
1.0011065e+01 -1.8024006e-03 0.0000000e+00 
1.0005412e+01 -7.9664914e-03 0.0000000e+00 
9.9980679e+00 -5.2450672e-03 0.0000000e+00 
9.9976892e+00 -1.8704034e-03 0.0000000e+00 
9.9980202e+00 -1.2199617e-03 0.0000000e+00 
9.9990635e+00 -3.0317900e-04 0.0000000e+00 
1.0010201e+01 -4.7006723e-03 0.0000000e+00 
1.0006958e+01 -7.7370531e-03 0.0000000e+00 
9.9974136e+00 -2.7401175e-03 0.0000000e+00 
9.9983320e+00 -7.4144796e-04 0.0000000e+00 
9.9975710e+00 -4.5624310e-03 0.0000000e+00 
9.9988756e+00 -3.4680965e-04 0.0000000e+00 
9.9995527e+00 -1.2501293e-04 0.0000000e+00 
1.0012173e+01 0.0000000e+00 0.0000000e+00 
1.0008582e+01 -7.2659003e-03 0.0000000e+00 
1.0011621e+01 -3.5415730e-03 0.0000000e+00 
9.9972181e+00 -3.8754325e-03 0.0000000e+00 
1.0000462e+01 -8.2453061e-03 0.0000000e+00 
9.9976711e+00 -1.4203497e-03 0.0000000e+00 
1.0001670e+01 -8.7627070e-03 0.0000000e+00 
9.9986591e+00 -3.9898627e-04 0.0000000e+00 
9.9993582e+00 -7.6134540e-03 0.0000000e+00 
9.9972868e+00 -2.1818557e-03 0.0000000e+00 
1.0003093e+01 -9.1368705e-03 0.0000000e+00 
9.9980307e+00 -8.6055585e-04 0.0000000e+00 
9.9994240e+00 -1.0948749e-04 0.0000000e+00 
9.9984846e+00 -6.8986961e-03 0.0000000e+00 
9.9992790e+00 -1.2209020e-04 0.0000000e+00 
1.0010252e+01 -6.5247798e-03 0.0000000e+00 
1.0004636e+01 -9.3296543e-03 0.0000000e+00 
9.9977388e+00 -6.1322572e-03 0.0000000e+00 
9.9969683e+00 -3.2005059e-03 0.0000000e+00 
9.9991169e+00 -1.3775106e-04 0.0000000e+00 
9.9984112e+00 -4.6100834e-04 0.0000000e+00 
1.0006335e+01 -9.3095489e-03 0.0000000e+00 
1.0012937e+01 -2.1047222e-03 0.0000000e+00 
9.9971552e+00 -5.3335954e-03 0.0000000e+00 
9.9989319e+00 -1.5704482e-04 0.0000000e+00 
9.9972649e+00 -1.6559458e-03 0.0000000e+00 
9.9976807e+00 -1.0009250e-03 0.0000000e+00 
1.0011928e+01 -5.4898835e-03 0.0000000e+00 
1.0008142e+01 -9.0398379e-03 0.0000000e+00 
9.9968176e+00 -2.5474816e-03 0.0000000e+00 
9.9967422e+00 -4.5299316e-03 0.0000000e+00 
9.9981232e+00 -5.3442444e-04 0.0000000e+00 
9.9987211e+00 -1.8016135e-04 0.0000000e+00 
9.9995508e+00 -2.2400379e-06 0.0000000e+00 
1.0014229e+01 0.0000000e+00 0.0000000e+00 
1.0000546e+01 -9.6412571e-03 0.0000000e+00 
9.9992514e+00 -8.9031346e-03 0.0000000e+00 
1.0010040e+01 -8.4877312e-03 0.0000000e+00 
1.0001959e+01 -1.0244890e-02 0.0000000e+00 
9.9982309e+00 -8.0676340e-03 0.0000000e+00 
1.0013587e+01 -4.1355030e-03 0.0000000e+00 
9.9964485e+00 -3.7405135e-03 0.0000000e+00 
9.9984789e+00 -2.0768489e-04 0.0000000e+00 
9.9993515e+00 9.2237560e-06 0.0000000e+00 
1.0003625e+01 -1.0680851e-02 0.0000000e+00 
9.9972734e+00 -1.1660521e-03 0.0000000e+00 
9.9973555e+00 -7.1716253e-03 0.0000000e+00 
9.9967918e+00 -1.9326406e-03 0.0000000e+00 
9.9977903e+00 -6.2107184e-04 0.0000000e+00 
9.9992008e+00 1.0417886e-05 0.0000000e+00 
1.0005429e+01 -1.0904202e-02 0.0000000e+00 
1.0011991e+01 -7.6204543e-03 0.0000000e+00 
9.9966698e+00 -6.2372717e-03 0.0000000e+00 
9.9990301e+00 1.1816792e-05 0.0000000e+00 
9.9962683e+00 -2.9764478e-03 0.0000000e+00 
9.9981976e+00 -2.4030315e-04 0.0000000e+00 
1.0007417e+01 -1.0878530e-02 0.0000000e+00 
1.0015122e+01 -2.4572585e-03 0.0000000e+00 
9.9961872e+00 -5.2971244e-03 0.0000000e+00 
9.9988356e+00 1.3579365e-05 0.0000000e+00 
9.9967976e+00 -1.3600591e-03 0.0000000e+00 
9.9974022e+00 -7.2312535e-04 0.0000000e+00 
1.0013946e+01 -6.4104460e-03 0.0000000e+00 
1.0009527e+01 -1.0560997e-02 0.0000000e+00 
9.9958401e+00 -4.3737181e-03 0.0000000e+00 
9.9962387e+00 -2.2573681e-03 0.0000000e+00 
9.9978714e+00 -2.7883219e-04 0.0000000e+00 
9.9986124e+00 1.5749687e-05 0.0000000e+00 
9.9991274e+00 -1.0412803e-02 0.0000000e+00 
1.0000649e+01 -1.1274697e-02 0.0000000e+00 
9.9979362e+00 -9.4364351e-03 0.0000000e+00 
1.0002299e+01 -1.1978443e-02 0.0000000e+00 
9.9994259e+00 1.2657103e-04 0.0000000e+00 
9.9969082e+00 -8.3891442e-03 0.0000000e+00 
1.0011744e+01 -9.9136177e-03 0.0000000e+00 
9.9995518e+00 1.2172300e-04 0.0000000e+00 
1.0016630e+01 0.0000000e+00 0.0000000e+00 
9.9992819e+00 1.4136460e-04 0.0000000e+00 
1.0004251e+01 -1.2485849e-02 0.0000000e+00 
9.9956264e+00 -3.4795371e-03 0.0000000e+00 
1.0015882e+01 -4.8279716e-03 0.0000000e+00 
9.9961023e+00 -7.2961063e-03 0.0000000e+00 
9.9983549e+00 1.8387907e-05 0.0000000e+00 
9.9969521e+00 -8.4315520e-04 0.0000000e+00 
9.9991198e+00 1.5957557e-04 0.0000000e+00 
9.9962425e+00 -1.5878006e-03 0.0000000e+00 
9.9974918e+00 -3.2423946e-04 0.0000000e+00 
1.0006360e+01 -1.2743977e-02 0.0000000e+00 
9.9955387e+00 -6.1962963e-03 0.0000000e+00 
1.0014021e+01 -8.8984370e-03 0.0000000e+00 
9.9989357e+00 1.8197838e-04 0.0000000e+00 
9.9955931e+00 -2.6382874e-03 0.0000000e+00 
1.0008683e+01 -1.2710801e-02 0.0000000e+00 
9.9980564e+00 2.1568647e-05 0.0000000e+00 
9.9951296e+00 -5.1160883e-03 0.0000000e+00 
1.0017674e+01 -2.8680959e-03 0.0000000e+00 
9.9987259e+00 2.0894840e-04 0.0000000e+00 
9.9964266e+00 -9.8419620e-04 0.0000000e+00 
9.9970493e+00 -3.7767069e-04 0.0000000e+00 
1.0011148e+01 -1.2336394e-02 0.0000000e+00 
1.0016303e+01 -7.4836048e-03 0.0000000e+00 
9.9989843e+00 -1.2179837e-02 0.0000000e+00 
9.9975939e+00 -1.1039183e-02 0.0000000e+00 
9.9948759e+00 -4.0694349e-03 0.0000000e+00 
1.0000773e+01 -1.3185802e-02 0.0000000e+00 
9.9955940e+00 -1.8549907e-03 0.0000000e+00 
9.9984837e+00 2.4117710e-04 0.0000000e+00 
9.9963865e+00 -9.8153008e-03 0.0000000e+00 
9.9977112e+00 2.5381602e-05 0.0000000e+00 