# vtk DataFile Version 4.0
vtk output
ASCII
DATASET UNSTRUCTURED_GRID
POINTS 3806 float
2.0000000e+01 1.0000000e+01 0.0000000e+00 
1.9750000e+01 1.0000000e+01 0.0000000e+00 
2.0000000e+01 9.7500000e+00 0.0000000e+00 
1.9625000e+01 9.7427902e+00 0.0000000e+00 
2.0000000e+01 9.5000000e+00 0.0000000e+00 
1.9500000e+01 1.0000000e+01 0.0000000e+00 
1.9750000e+01 9.5262804e+00 0.0000000e+00 
1.9375000e+01 9.7427902e+00 0.0000000e+00 
1.9500000e+01 9.5262804e+00 0.0000000e+00 
1.9250000e+01 1.0000000e+01 0.0000000e+00 
2.0000000e+01 9.2500000e+00 0.0000000e+00 
1.9645800e+01 9.2998104e+00 0.0000000e+00 
1.9250000e+01 9.5262804e+00 0.0000000e+00 
1.9125000e+01 9.7427902e+00 0.0000000e+00 
1.9375000e+01 9.3097696e+00 0.0000000e+00 
1.9750000e+01 9.0932703e+00 0.0000000e+00 
2.0000000e+01 9.0000000e+00 0.0000000e+00 
1.9000000e+01 1.0000000e+01 0.0000000e+00 
1.9500000e+01 9.0932703e+00 0.0000000e+00 
1.9000000e+01 9.5262804e+00 0.0000000e+00 
1.9125000e+01 9.3097696e+00 0.0000000e+00 
1.8875000e+01 9.7427902e+00 0.0000000e+00 
1.9696400e+01 8.8762598e+00 0.0000000e+00 
1.9250000e+01 9.0932703e+00 0.0000000e+00 
2.0000000e+01 8.7500000e+00 0.0000000e+00 
1.8750000e+01 1.0000000e+01 0.0000000e+00 
1.9375000e+01 8.8767595e+00 0.0000000e+00 
1.8875000e+01 9.3097696e+00 0.0000000e+00 
1.8750000e+01 9.5262804e+00 0.0000000e+00 
1.9000000e+01 9.0932703e+00 0.0000000e+00 
1.9750000e+01 8.6602497e+00 0.0000000e+00 
1.8625000e+01 9.7427902e+00 0.0000000e+00 
1.9125000e+01 8.8767595e+00 0.0000000e+00 
1.9500000e+01 8.6602497e+00 0.0000000e+00 
2.0000000e+01 8.5000000e+00 0.0000000e+00 
1.8500000e+01 1.0000000e+01 0.0000000e+00 
1.9250000e+01 8.6602497e+00 0.0000000e+00 
1.8625000e+01 9.3097696e+00 0.0000000e+00 
1.8750000e+01 9.0932703e+00 0.0000000e+00 
1.8500000e+01 9.5262804e+00 0.0000000e+00 
1.9645800e+01 8.4531202e+00 0.0000000e+00 
1.8875000e+01 8.8767595e+00 0.0000000e+00 
1.8375000e+01 9.7427902e+00 0.0000000e+00 
1.9000000e+01 8.6602497e+00 0.0000000e+00 
1.9375000e+01 8.4437504e+00 0.0000000e+00 
2.0000000e+01 8.2500000e+00 0.0000000e+00 
1.8250000e+01 1.0000000e+01 0.0000000e+00 
1.8500000e+01 9.0932703e+00 0.0000000e+00 
1.8375000e+01 9.3097696e+00 0.0000000e+00 
1.8625000e+01 8.8767595e+00 0.0000000e+00 
1.9125000e+01 8.4437504e+00 0.0000000e+00 
1.9750000e+01 8.2272396e+00 0.0000000e+00 
1.8250000e+01 9.5262804e+00 0.0000000e+00 
1.8750000e+01 8.6602497e+00 0.0000000e+00 
1.9500000e+01 8.2272396e+00 0.0000000e+00 
1.8125000e+01 9.7427902e+00 0.0000000e+00 
1.8875000e+01 8.4437504e+00 0.0000000e+00 
1.9250000e+01 8.2272396e+00 0.0000000e+00 
1.8250000e+01 9.0932703e+00 0.0000000e+00 
1.8375000e+01 8.8767595e+00 0.0000000e+00 
1.8125000e+01 9.3097696e+00 0.0000000e+00 
2.0000000e+01 8.0000000e+00 0.0000000e+00 
1.8000000e+01 1.0000000e+01 0.0000000e+00 
1.8500000e+01 8.6602497e+00 0.0000000e+00 
1.9625000e+01 8.0107298e+00 0.0000000e+00 
1.9000000e+01 8.2272396e+00 0.0000000e+00 
1.8000000e+01 9.5262804e+00 0.0000000e+00 
1.8625000e+01 8.4437504e+00 0.0000000e+00 
1.9375000e+01 8.0107298e+00 0.0000000e+00 
1.7875000e+01 9.7834902e+00 0.0000000e+00 
1.8750000e+01 8.2272396e+00 0.0000000e+00 
1.9125000e+01 8.0107298e+00 0.0000000e+00 
1.8125000e+01 8.8767595e+00 0.0000000e+00 
1.8000000e+01 9.0932703e+00 0.0000000e+00 
1.8250000e+01 8.6602497e+00 0.0000000e+00 
1.9750000e+01 7.7942300e+00 0.0000000e+00 
1.7875000e+01 9.3097696e+00 0.0000000e+00 
2.0000000e+01 7.7500000e+00 0.0000000e+00 
1.7750000e+01 1.0000000e+01 0.0000000e+00 
1.8375000e+01 8.4437504e+00 0.0000000e+00 
1.9500000e+01 7.7942300e+00 0.0000000e+00 
1.8875000e+01 8.0107298e+00 0.0000000e+00 
1.7750000e+01 9.5262804e+00 0.0000000e+00 
1.8500000e+01 8.2272396e+00 0.0000000e+00 
1.9250000e+01 7.7942300e+00 0.0000000e+00 
1.7625000e+01 9.7834902e+00 0.0000000e+00 
1.7875000e+01 8.8767595e+00 0.0000000e+00 
1.8000000e+01 8.6602497e+00 0.0000000e+00 
1.8625000e+01 8.0107298e+00 0.0000000e+00 
1.9000000e+01 7.7942300e+00 0.0000000e+00 
1.7750000e+01 9.0932703e+00 0.0000000e+00 
1.8125000e+01 8.4437504e+00 0.0000000e+00 
1.9645800e+01 7.5647702e+00 0.0000000e+00 
1.7625000e+01 9.3097696e+00 0.0000000e+00 
1.8250000e+01 8.2272396e+00 0.0000000e+00 
2.0000000e+01 7.5000000e+00 0.0000000e+00 
1.7500000e+01 1.0000000e+01 0.0000000e+00 
1.9375000e+01 7.5777202e+00 0.0000000e+00 
1.8750000e+01 7.7942300e+00 0.0000000e+00 
1.7500000e+01 9.5262804e+00 0.0000000e+00 
1.8375000e+01 8.0107298e+00 0.0000000e+00 
1.9125000e+01 7.5777202e+00 0.0000000e+00 
1.7750000e+01 8.6602497e+00 0.0000000e+00 
1.7625000e+01 8.8767595e+00 0.0000000e+00 
1.7875000e+01 8.4437504e+00 0.0000000e+00 
1.7375000e+01 9.7427902e+00 0.0000000e+00 
1.9768499e+01 7.3630099e+00 0.0000000e+00 
1.7500000e+01 9.0932703e+00 0.0000000e+00 
1.8500000e+01 7.7942300e+00 0.0000000e+00 
1.8875000e+01 7.5777202e+00 0.0000000e+00 
1.8000000e+01 8.2272396e+00 0.0000000e+00 
1.9500000e+01 7.3612199e+00 0.0000000e+00 
1.7375000e+01 9.3097696e+00 0.0000000e+00 
1.8125000e+01 8.0107298e+00 0.0000000e+00 
1.9250000e+01 7.3612199e+00 0.0000000e+00 
2.0000000e+01 7.2500000e+00 0.0000000e+00 
1.7250000e+01 1.0000000e+01 0.0000000e+00 
1.8625000e+01 7.5777202e+00 0.0000000e+00 
1.7250000e+01 9.5262804e+00 0.0000000e+00 
1.8250000e+01 7.7942300e+00 0.0000000e+00 
1.9000000e+01 7.3612199e+00 0.0000000e+00 
1.7500000e+01 8.6602497e+00 0.0000000e+00 
1.7625000e+01 8.4437504e+00 0.0000000e+00 
1.7375000e+01 8.8767595e+00 0.0000000e+00 
1.7750000e+01 8.2272396e+00 0.0000000e+00 
1.9696400e+01 7.1390800e+00 0.0000000e+00 
1.7125000e+01 9.7427902e+00 0.0000000e+00 
1.7250000e+01 9.0932703e+00 0.0000000e+00 
1.7875000e+01 8.0107298e+00 0.0000000e+00 
1.8375000e+01 7.5777202e+00 0.0000000e+00 
1.8750000e+01 7.3612199e+00 0.0000000e+00 
1.9375000e+01 7.1447101e+00 0.0000000e+00 
1.7125000e+01 9.3097696e+00 0.0000000e+00 
1.8000000e+01 7.7942300e+00 0.0000000e+00 
1.9125000e+01 7.1447101e+00 0.0000000e+00 
2.0000000e+01 7.0000000e+00 0.0000000e+00 
1.7000000e+01 1.0000000e+01 0.0000000e+00 
1.8500000e+01 7.3612199e+00 0.0000000e+00 
1.7000000e+01 9.5262804e+00 0.0000000e+00 
1.7375000e+01 8.4437504e+00 0.0000000e+00 
1.7250000e+01 8.6602497e+00 0.0000000e+00 
1.8125000e+01 7.5777202e+00 0.0000000e+00 
1.7500000e+01 8.2272396e+00 0.0000000e+00 
1.8875000e+01 7.1447101e+00 0.0000000e+00 
1.9750000e+01 6.9281998e+00 0.0000000e+00 
1.7125000e+01 8.8767595e+00 0.0000000e+00 
1.7625000e+01 8.0107298e+00 0.0000000e+00 
1.9500000e+01 6.9281998e+00 0.0000000e+00 
1.7000000e+01 9.0932703e+00 0.0000000e+00 
1.6875000e+01 9.7427902e+00 0.0000000e+00 
1.7750000e+01 7.7942300e+00 0.0000000e+00 
1.9250000e+01 6.9281998e+00 0.0000000e+00 
1.8250000e+01 7.3612199e+00 0.0000000e+00 
1.8625000e+01 7.1447101e+00 0.0000000e+00 
1.6875000e+01 9.3097696e+00 0.0000000e+00 
1.7875000e+01 7.5777202e+00 0.0000000e+00 
1.9000000e+01 6.9281998e+00 0.0000000e+00 
2.0000000e+01 6.7500000e+00 0.0000000e+00 
1.6750000e+01 1.0000000e+01 0.0000000e+00 
1.7125000e+01 8.4437504e+00 0.0000000e+00 
1.7250000e+01 8.2272396e+00 0.0000000e+00 
1.6750000e+01 9.5262804e+00 0.0000000e+00 
1.8375000e+01 7.1447101e+00 0.0000000e+00 
1.7000000e+01 8.6602497e+00 0.0000000e+00 
1.7375000e+01 8.0107298e+00 0.0000000e+00 
1.9645800e+01 6.7180800e+00 0.0000000e+00 
1.8000000e+01 7.3612199e+00 0.0000000e+00 
1.8750000e+01 6.9281998e+00 0.0000000e+00 
1.6875000e+01 8.8767595e+00 0.0000000e+00 
1.7500000e+01 7.7942300e+00 0.0000000e+00 
1.9375000e+01 6.7117000e+00 0.0000000e+00 
1.6750000e+01 9.0932703e+00 0.0000000e+00 
1.6625000e+01 9.7427902e+00 0.0000000e+00 
1.7625000e+01 7.5777202e+00 0.0000000e+00 
1.9125000e+01 6.7117000e+00 0.0000000e+00 
1.8125000e+01 7.1447101e+00 0.0000000e+00 
1.8500000e+01 6.9281998e+00 0.0000000e+00 
1.6625000e+01 9.3097696e+00 0.0000000e+00 
1.7750000e+01 7.3612199e+00 0.0000000e+00 
1.8875000e+01 6.7117000e+00 0.0000000e+00 
1.7000000e+01 8.2272396e+00 0.0000000e+00 
1.6875000e+01 8.4437504e+00 0.0000000e+00 
1.7125000e+01 8.0107298e+00 0.0000000e+00 
2.0000000e+01 6.5000000e+00 0.0000000e+00 
1.6500000e+01 1.0000000e+01 0.0000000e+00 
1.9750000e+01 6.4951901e+00 0.0000000e+00 
1.6750000e+01 8.6602497e+00 0.0000000e+00 
1.7250000e+01 7.7942300e+00 0.0000000e+00 
1.6500000e+01 9.5262804e+00 0.0000000e+00 
1.8250000e+01 6.9281998e+00 0.0000000e+00 
1.9500000e+01 6.4951901e+00 0.0000000e+00 
1.6625000e+01 8.8767595e+00 0.0000000e+00 
1.7875000e+01 7.1447101e+00 0.0000000e+00 
1.8625000e+01 6.7117000e+00 0.0000000e+00 
1.7375000e+01 7.5777202e+00 0.0000000e+00 
1.9250000e+01 6.4951901e+00 0.0000000e+00 
1.6500000e+01 9.0932703e+00 0.0000000e+00 
1.6375000e+01 9.7427902e+00 0.0000000e+00 
1.7500000e+01 7.3612199e+00 0.0000000e+00 
1.9000000e+01 6.4951901e+00 0.0000000e+00 
1.8000000e+01 6.9281998e+00 0.0000000e+00 
1.8375000e+01 6.7117000e+00 0.0000000e+00 
1.6375000e+01 9.3097696e+00 0.0000000e+00 
1.6750000e+01 8.2272396e+00 0.0000000e+00 
1.6875000e+01 8.0107298e+00 0.0000000e+00 
1.7625000e+01 7.1447101e+00 0.0000000e+00 
1.6625000e+01 8.4437504e+00 0.0000000e+00 
1.8750000e+01 6.4951901e+00 0.0000000e+00 
1.7000000e+01 7.7942300e+00 0.0000000e+00 
1.9625000e+01 6.2786798e+00 0.0000000e+00 
1.6500000e+01 8.6602497e+00 0.0000000e+00 
2.0000000e+01 6.2500000e+00 0.0000000e+00 
1.6250000e+01 1.0000000e+01 0.0000000e+00 
1.7125000e+01 7.5777202e+00 0.0000000e+00 
1.9375000e+01 6.2786798e+00 0.0000000e+00 
1.6250000e+01 9.5262804e+00 0.0000000e+00 
1.8125000e+01 6.7117000e+00 0.0000000e+00 
1.6375000e+01 8.8767595e+00 0.0000000e+00 
1.7750000e+01 6.9281998e+00 0.0000000e+00 
1.7250000e+01 7.3612199e+00 0.0000000e+00 
1.8500000e+01 6.4951901e+00 0.0000000e+00 
1.9125000e+01 6.2786798e+00 0.0000000e+00 
1.6250000e+01 9.0932703e+00 0.0000000e+00 
1.7375000e+01 7.1447101e+00 0.0000000e+00 
1.6125000e+01 9.7427902e+00 0.0000000e+00 
[...]
POINT_DATA 3806
FIELD FieldData 2
VELOCITY 3 3806  float
9.9936953e+00 1.0210511e-24 0.0000000e+00 
9.9934816e+00 -5.1698788e-25 0.0000000e+00 
9.9935884e+00 1.9175016e-04 0.0000000e+00 
9.9931746e+00 3.5304955e-04 0.0000000e+00 
9.9938784e+00 3.6178745e-04 0.0000000e+00 
9.9931269e+00 -1.3958673e-24 0.0000000e+00 
9.9936352e+00 5.6102034e-04 0.0000000e+00 
9.9927797e+00 4.5895777e-04 0.0000000e+00 
9.9932756e+00 7.5490243e-04 0.0000000e+00 
9.9926767e+00 -1.3958673e-24 0.0000000e+00 
9.9941111e+00 5.8198033e-04 0.0000000e+00 
9.9936695e+00 9.5637533e-04 0.0000000e+00 
9.9928217e+00 9.4224972e-04 0.0000000e+00 
9.9922848e+00 5.5838202e-04 0.0000000e+00 
9.9932289e+00 1.2394458e-03 0.0000000e+00 
9.9941053e+00 1.0813740e-03 0.0000000e+00 
9.9945316e+00 7.7733456e-04 0.0000000e+00 
9.9921312e+00 8.5303001e-25 0.0000000e+00 
9.9937420e+00 1.4537273e-03 0.0000000e+00 
9.9922724e+00 1.1216290e-03 0.0000000e+00 
9.9927311e+00 1.5071608e-03 0.0000000e+00 
9.9916945e+00 6.5286818e-04 0.0000000e+00 
9.9944391e+00 1.4665194e-03 0.0000000e+00 
9.9932785e+00 1.8107585e-03 0.0000000e+00 
9.9949951e+00 9.9049800e-04 0.0000000e+00 
9.9914932e+00 8.5303001e-25 0.0000000e+00 
9.9939089e+00 2.0329559e-03 0.0000000e+00 
9.9921360e+00 1.7628913e-03 0.0000000e+00 
9.9916315e+00 1.2913742e-03 0.0000000e+00 
9.9927216e+00 2.1550583e-03 0.0000000e+00 
9.9949369e+00 1.6326763e-03 0.0000000e+00 
9.9910154e+00 7.4152194e-04 0.0000000e+00 
9.9933958e+00 2.4699462e-03 0.0000000e+00 
9.9945631e+00 2.1703583e-03 0.0000000e+00 
9.9956560e+00 1.2555555e-03 0.0000000e+00 
9.9907694e+00 8.5303001e-25 0.0000000e+00 
9.9940968e+00 2.6950880e-03 0.0000000e+00 
9.9914494e+00 2.0037189e-03 0.0000000e+00 
9.9920712e+00 2.4833384e-03 0.0000000e+00 
9.9909029e+00 1.4484451e-03 0.0000000e+00 
9.9953480e+00 2.1640765e-03 0.0000000e+00 
9.9927855e+00 2.8896199e-03 0.0000000e+00 
9.9902534e+00 8.2287547e-04 0.0000000e+00 
9.9935398e+00 3.2047194e-03 0.0000000e+00 
9.9949160e+00 2.8432631e-03 0.0000000e+00 
9.9962444e+00 1.4426684e-03 0.0000000e+00 
9.9899654e+00 1.3441685e-24 0.0000000e+00 
9.9913301e+00 2.7909221e-03 0.0000000e+00 
9.9906759e+00 2.2251888e-03 0.0000000e+00 
9.9920788e+00 3.2896621e-03 0.0000000e+00 
9.9943924e+00 3.4456612e-03 0.0000000e+00 
9.9960432e+00 2.1931035e-03 0.0000000e+00 
9.9900942e+00 1.5886334e-03 0.0000000e+00 
9.9928894e+00 3.6969767e-03 0.0000000e+00 
9.9956656e+00 2.8932763e-03 0.0000000e+00 
9.9894199e+00 8.9688657e-04 0.0000000e+00 
9.9937677e+00 4.0344498e-03 0.0000000e+00 
9.9952164e+00 3.5772549e-03 0.0000000e+00 
9.9905033e+00 3.0700918e-03 0.0000000e+00 
9.9912777e+00 3.6628291e-03 0.0000000e+00 
9.9898205e+00 2.4200585e-03 0.0000000e+00 
9.9971914e+00 1.7502782e-03 0.0000000e+00 
9.9890881e+00 1.3441685e-24 0.0000000e+00 
9.9921455e+00 4.1653025e-03 0.0000000e+00 
9.9966736e+00 2.8790955e-03 0.0000000e+00 
9.9946861e+00 4.2508421e-03 0.0000000e+00 
9.9892139e+00 1.7016610e-03 0.0000000e+00 
9.9930363e+00 4.6048183e-03 0.0000000e+00 
9.9962349e+00 3.6542069e-03 0.0000000e+00 
9.9885139e+00 8.0543413e-04 0.0000000e+00 
9.9940710e+00 4.9115820e-03 0.0000000e+00 
9.9956894e+00 4.4210530e-03 0.0000000e+00 
9.9903851e+00 3.9988672e-03 0.0000000e+00 
9.9895954e+00 3.3116057e-03 0.0000000e+00 
9.9913082e+00 4.5998115e-03 0.0000000e+00 
9.9974051e+00 2.7646322e-03 0.0000000e+00 
9.9888954e+00 2.5808699e-03 0.0000000e+00 
9.9978228e+00 1.9590370e-03 0.0000000e+00 
9.9881811e+00 2.0679515e-25 0.0000000e+00 
9.9921961e+00 5.1481561e-03 0.0000000e+00 
9.9970732e+00 3.5968451e-03 0.0000000e+00 
9.9950247e+00 5.1832427e-03 0.0000000e+00 
9.9882669e+00 1.7943879e-03 0.0000000e+00 
9.9933681e+00 5.5523724e-03 0.0000000e+00 
9.9966965e+00 4.4281627e-03 0.0000000e+00 
9.9875679e+00 8.2670629e-04 0.0000000e+00 
9.9894056e+00 4.2831856e-03 0.0000000e+00 
9.9903803e+00 4.9863048e-03 0.0000000e+00 
9.9942322e+00 5.9363539e-03 0.0000000e+00 
9.9962721e+00 5.2609425e-03 0.0000000e+00 
9.9886169e+00 3.5010357e-03 0.0000000e+00 
9.9912443e+00 5.6514465e-03 0.0000000e+00 
9.9982014e+00 3.4809515e-03 0.0000000e+00 
9.9879179e+00 2.6908654e-03 0.0000000e+00 
9.9925756e+00 6.1616139e-03 0.0000000e+00 
9.9990263e+00 2.2957542e-03 0.0000000e+00 
9.9872332e+00 9.3057819e-25 0.0000000e+00 
9.9976196e+00 4.4427682e-03 0.0000000e+00 
9.9957933e+00 6.0937996e-03 0.0000000e+00 
9.9872761e+00 1.8530180e-03 0.0000000e+00 
9.9932985e+00 6.6715125e-03 0.0000000e+00 
9.9969969e+00 5.3589111e-03 0.0000000e+00 
9.9893675e+00 5.3056725e-03 0.0000000e+00 
9.9883471e+00 4.4970969e-03 0.0000000e+00 
9.9901772e+00 6.0965652e-03 0.0000000e+00 
9.9865980e+00 9.9119870e-04 0.0000000e+00 
9.9994259e+00 3.2448939e-03 0.0000000e+00 
9.9875813e+00 3.6198739e-03 0.0000000e+00 
9.9952555e+00 6.9198702e-03 0.0000000e+00 
9.9962215e+00 6.2903832e-03 0.0000000e+00 
9.9916916e+00 6.7224554e-03 0.0000000e+00 
9.9992619e+00 4.2350595e-03 0.0000000e+00 
9.9868994e+00 2.7364690e-03 0.0000000e+00 
9.9922123e+00 7.3745116e-03 0.0000000e+00 
9.9991198e+00 5.2187280e-03 0.0000000e+00 
9.9998856e+00 2.4554862e-03 0.0000000e+00 
9.9862547e+00 9.3057819e-25 0.0000000e+00 
9.9952774e+00 7.2319973e-03 0.0000000e+00 
9.9862843e+00 1.8502164e-03 0.0000000e+00 
9.9946547e+00 7.7272765e-03 0.0000000e+00 
9.9989653e+00 6.2103863e-03 0.0000000e+00 
9.9882774e+00 5.5331304e-03 0.0000000e+00 
9.9889965e+00 6.4592925e-03 0.0000000e+00 
9.9872236e+00 4.6164701e-03 0.0000000e+00 
9.9907169e+00 7.2118556e-03 0.0000000e+00 
9.9994612e+00 3.7972440e-03 0.0000000e+00 
9.9856281e+00 9.7522239e-04 0.0000000e+00 
9.9865065e+00 3.6472904e-03 0.0000000e+00 
9.9909592e+00 8.0249114e-03 0.0000000e+00 
9.9941397e+00 8.1750229e-03 0.0000000e+00 
9.9988003e+00 7.2245067e-03 0.0000000e+00 
9.9987268e+00 5.0284439e-03 0.0000000e+00 
9.9858618e+00 2.7029428e-03 0.0000000e+00 
9.9939880e+00 8.4981918e-03 0.0000000e+00 
9.9980421e+00 6.0650846e-03 0.0000000e+00 
9.9997873e+00 2.7152840e-03 0.0000000e+00 
9.9852972e+00 1.6543612e-24 0.0000000e+00 
9.9986191e+00 8.2567083e-03 0.0000000e+00 
9.9852934e+00 1.7834560e-03 0.0000000e+00 
9.9877052e+00 6.7082369e-03 0.0000000e+00 
9.9871225e+00 5.6368406e-03 0.0000000e+00 
9.9927816e+00 9.1051674e-03 0.0000000e+00 
9.9896564e+00 7.5994236e-03 0.0000000e+00 
9.9972057e+00 7.1350369e-03 0.0000000e+00 
1.0000147e+01 3.8991335e-03 0.0000000e+00 
9.9860506e+00 4.6104225e-03 0.0000000e+00 
9.9895248e+00 8.5949181e-03 0.0000000e+00 
9.9997473e+00 5.0309859e-03 0.0000000e+00 
9.9854183e+00 3.5537221e-03 0.0000000e+00 
9.9846973e+00 9.1226056e-04 0.0000000e+00 
9.9932566e+00 9.2076445e-03 0.0000000e+00 
9.9993191e+00 6.1573568e-03 0.0000000e+00 
9.9984188e+00 9.2971921e-03 0.0000000e+00 
9.9961901e+00 8.2393624e-03 0.0000000e+00 
9.9848413e+00 2.5616633e-03 0.0000000e+00 
9.9911747e+00 1.0001226e-02 0.0000000e+00 
9.9987984e+00 7.3397453e-03 0.0000000e+00 
1.0003891e+01 3.0320170e-03 0.0000000e+00 
9.9844017e+00 1.6543612e-24 0.0000000e+00 
9.9863081e+00 6.8036076e-03 0.0000000e+00 
9.9885187e+00 7.8461170e-03 0.0000000e+00 
9.9843464e+00 1.6323151e-03 0.0000000e+00 
9.9949646e+00 9.3715964e-03 0.0000000e+00 
9.9859228e+00 5.5771633e-03 0.0000000e+00 
9.9878979e+00 9.0480316e-03 0.0000000e+00 
1.0004680e+01 4.3807635e-03 0.0000000e+00 
9.9981956e+00 1.0329660e-02 0.0000000e+00 
9.9981651e+00 8.5825166e-03 0.0000000e+00 
9.9848537e+00 4.4413633e-03 0.0000000e+00 
9.9924631e+00 9.8221451e-03 0.0000000e+00 
1.0005225e+01 5.5015679e-03 0.0000000e+00 
9.9843502e+00 3.3049530e-03 0.0000000e+00 
9.9838495e+00 7.9725421e-04 0.0000000e+00 
9.9892864e+00 1.0833673e-02 0.0000000e+00 
1.0005790e+01 6.6343425e-03 0.0000000e+00 
9.9934940e+00 1.0519380e-02 0.0000000e+00 
9.9973974e+00 9.8860012e-03 0.0000000e+00 
9.9838791e+00 2.2835103e-03 0.0000000e+00 
9.9979458e+00 1.1330030e-02 0.0000000e+00 
1.0006452e+01 7.8445813e-03 0.0000000e+00 
9.9873152e+00 7.9026176e-03 0.0000000e+00 
9.9848194e+00 6.6955858e-03 0.0000000e+00 
9.9860659e+00 9.3374178e-03 0.0000000e+00 
1.0003358e+01 2.7461215e-03 0.0000000e+00 
9.9836168e+00 -8.2718061e-25 0.0000000e+00 
1.0003329e+01 3.6547151e-03 0.0000000e+00 
9.9847021e+00 5.3047976e-03 0.0000000e+00 
9.9916124e+00 1.0298062e-02 0.0000000e+00 
9.9834929e+00 1.3740293e-03 0.0000000e+00 
9.9964666e+00 1.1244163e-02 0.0000000e+00 
1.0003176e+01 4.7534904e-03 0.0000000e+00 
9.9836645e+00 4.0625432e-03 0.0000000e+00 
9.9917421e+00 1.1663118e-02 0.0000000e+00 
1.0007200e+01 9.1253333e-03 0.0000000e+00 
9.9870853e+00 1.1563004e-02 0.0000000e+00 
1.0002991e+01 5.8167763e-03 0.0000000e+00 
9.9833441e+00 2.8587191e-03 0.0000000e+00 
9.9831419e+00 6.1617681e-04 0.0000000e+00 
9.9976664e+00 1.2264883e-02 0.0000000e+00 
1.0002791e+01 6.9407141e-03 0.0000000e+00 
9.9953403e+00 1.2643976e-02 0.0000000e+00 
1.0008035e+01 1.0475744e-02 0.0000000e+00 
9.9830275e+00 1.8329013e-03 0.0000000e+00 
9.9860649e+00 7.7075446e-03 0.0000000e+00 
9.9840202e+00 9.4040325e-03 0.0000000e+00 
9.9896727e+00 1.2774407e-02 0.0000000e+00 
9.9832544e+00 6.3226935e-03 0.0000000e+00 
1.0002556e+01 8.1495848e-03 0.0000000e+00 
9.9907160e+00 1.0579733e-02 0.0000000e+00 
1.0002564e+01 4.3113497e-03 0.0000000e+00 
9.9834957e+00 4.7594476e-03 0.0000000e+00 
1.0003168e+01 3.1428216e-03 0.0000000e+00 
9.9830065e+00 -8.2718061e-25 0.0000000e+00 
9.9845390e+00 1.2137814e-02 0.0000000e+00 
1.0002436e+01 5.4514725e-03 0.0000000e+00 
9.9827967e+00 9.8132459e-04 0.0000000e+00 
1.0008952e+01 1.1889442e-02 0.0000000e+00 
9.9825258e+00 3.4171899e-03 0.0000000e+00 
9.9939814e+00 1.4064047e-02 0.0000000e+00 
9.9973526e+00 1.3089615e-02 0.0000000e+00 
1.0002251e+01 9.4428724e-03 0.0000000e+00 
1.0002090e+01 6.6836216e-03 0.0000000e+00 
9.9824553e+00 2.1638502e-03 0.0000000e+00 
9.9872484e+00 1.3814193e-02 0.0000000e+00 
9.9826450e+00 3.5259328e-04 0.0000000e+00 
1.0001451e+01 7.9990504e-03 0.0000000e+00 
1.0009947e+01 1.3352906e-02 0.0000000e+00 
1.0001835e+01 1.0817260e-02 0.0000000e+00 
9.9817543e+00 9.1744065e-03 0.0000000e+00 
9.9847965e+00 7.1853157e-03 0.0000000e+00 
9.9897871e+00 1.0597261e-02 0.0000000e+00 
9.9823513e+00 1.1667641e-03 0.0000000e+00 
9.9816418e+00 5.6097321e-03 0.0000000e+00 
1.0001187e+01 5.1169572e-03 0.0000000e+00 
9.9816132e+00 1.2492551e-02 0.0000000e+00 
9.9923458e+00 1.5472799e-02 0.0000000e+00 
1.0000514e+01 9.4280373e-03 0.0000000e+00 
9.9991045e+00 5.7148878e-03 0.0000000e+00 
9.9823494e+00 3.8679200e-03 0.0000000e+00 
9.9970007e+00 1.3746268e-02 0.0000000e+00 
1.0001635e+01 3.7501659e-03 0.0000000e+00 
9.9826517e+00 -8.2718061e-25 0.0000000e+00 
9.9975357e+00 6.9065429e-03 0.0000000e+00 
9.9823341e+00 4.2158359e-04 0.0000000e+00 
9.9814930e+00 2.4368183e-03 0.0000000e+00 
1.0001269e+01 1.2264581e-02 0.0000000e+00 
9.9844313e+00 1.4730651e-02 0.0000000e+00 
1.0011012e+01 1.4843843e-02 0.0000000e+00 
9.9992390e+00 1.0983697e-02 0.0000000e+00 
9.9962006e+00 8.3193146e-03 0.0000000e+00 
9.9817543e+00 1.1589251e-03 0.0000000e+00 
9.9903889e+00 1.6826298e-02 0.0000000e+00 
9.9948244e+00 9.8985657e-03 0.0000000e+00 
9.9824467e+00 -1.2961025e-05 0.0000000e+00 
9.9792700e+00 8.5581038e-03 0.0000000e+00 
9.9888487e+00 1.0263953e-02 0.0000000e+00 
9.9835453e+00 6.2437290e-03 0.0000000e+00 
9.9782791e+00 1.2544904e-02 0.0000000e+00 
1.0000510e+01 1.3769814e-02 0.0000000e+00 
9.9975615e+00 1.2669959e-02 0.0000000e+00 
9.9800167e+00 4.4655032e-03 0.0000000e+00 
9.9819326e+00 2.3359942e-04 0.0000000e+00 
1.0008393e+01 5.0127148e-03 0.0000000e+00 
9.9966078e+00 1.4160982e-02 0.0000000e+00 
1.0009442e+01 6.3886545e-03 0.0000000e+00 
1.0012133e+01 1.6329251e-02 0.0000000e+00 
9.9932785e+00 1.1658308e-02 0.0000000e+00 
9.9813213e+00 2.5420438e-03 0.0000000e+00 
9.9811878e+00 1.5456720e-02 0.0000000e+00 
1.0010603e+01 7.7098138e-03 0.0000000e+00 
1.0005053e+01 1.9098152e-03 0.0000000e+00 
9.9826527e+00 -4.1359031e-25 0.0000000e+00 
9.9806356e+00 1.0393823e-03 0.0000000e+00 
9.9822016e+00 -3.4394342e-04 0.0000000e+00 
9.9954004e+00 1.4483581e-02 0.0000000e+00 
9.9880619e+00 1.8065726e-02 0.0000000e+00 
1.0011811e+01 9.2122871e-03 0.0000000e+00 
9.9995098e+00 1.5309015e-02 0.0000000e+00 
9.9914846e+00 1.3610591e-02 0.0000000e+00 
9.9813271e+00 -2.2922945e-04 0.0000000e+00 
9.9879284e+00 9.4733639e-03 0.0000000e+00 
9.9765711e+00 7.4447826e-03 0.0000000e+00 
9.9745092e+00 1.2192790e-02 0.0000000e+00 
1.0013290e+01 1.7763119e-02 0.0000000e+00 
9.9823618e+00 4.7711930e-03 0.0000000e+00 
1.0013136e+01 1.0917167e-02 0.0000000e+00 
1.0010199e+01 2.9935692e-03 0.0000000e+00 
9.9826574e+00 -5.0347217e-04 0.0000000e+00 
9.9961691e+00 1.4241043e-02 0.0000000e+00 
1.0011464e+01 4.6539735e-03 0.0000000e+00 
9.9784298e+00 2.7802247e-03 0.0000000e+00 
9.9926586e+00 1.6413059e-02 0.0000000e+00 
9.9893761e+00 1.5763102e-02 0.0000000e+00 
9.9774866e+00 1.5907282e-02 0.0000000e+00 
9.9818764e+00 -1.0276565e-03 0.0000000e+00 
1.0013922e+01 5.7176314e-03 0.0000000e+00 
9.9982185e+00 1.6847059e-02 0.0000000e+00 
9.9804869e+00 6.7636278e-04 0.0000000e+00 
1.0014618e+01 1.2825488e-02 0.0000000e+00 
9.9853086e+00 1.9114453e-02 0.0000000e+00 
1.0016780e+01 6.8162177e-03 0.0000000e+00 
1.0030436e+01 3.1788193e-03 0.0000000e+00 
9.9831295e+00 -4.1359031e-25 0.0000000e+00 
9.9800444e+00 -8.7271899e-04 0.0000000e+00 
9.9825163e+00 -1.3609595e-03 0.0000000e+00 
9.9868851e+00 1.8117223e-02 0.0000000e+00 
1.0014461e+01 1.9083716e-02 0.0000000e+00 
1.0020312e+01 8.0557941e-03 0.0000000e+00 
9.9892244e+00 1.8436560e-02 0.0000000e+00 
1.0016293e+01 1.4946839e-02 0.0000000e+00 
9.9870644e+00 8.0958772e-03 0.0000000e+00 
9.9702845e+00 1.1310875e-02 0.0000000e+00 
9.9736767e+00 5.7008439e-03 0.0000000e+00 
9.9956799e+00 1.3871426e-02 0.0000000e+00 
1.0040004e+01 1.5338744e-03 0.0000000e+00 
9.9812841e+00 -2.0871575e-03 0.0000000e+00 
9.9813070e+00 2.6335998e-03 0.0000000e+00 
9.9965792e+00 1.8335095e-02 0.0000000e+00 
9.9733038e+00 1.5975887e-02 0.0000000e+00 
1.0024645e+01 9.4446186e-03 0.0000000e+00 
1.0048898e+01 5.7213433e-04 0.0000000e+00 
9.9834080e+00 -1.1459086e-03 0.0000000e+00 
9.9769459e+00 4.2264437e-04 0.0000000e+00 
9.9820738e+00 1.9874705e-02 0.0000000e+00 
9.9839401e+00 2.0665757e-02 0.0000000e+00 
1.0018190e+01 1.7287919e-02 0.0000000e+00 
1.0057505e+01 7.5280794e-04 0.0000000e+00 
9.9823065e+00 -2.6888538e-03 0.0000000e+00 
9.9799423e+00 -1.8543865e-03 0.0000000e+00 
9.9849768e+00 2.0519359e-02 0.0000000e+00 
1.0029862e+01 1.0988889e-02 0.0000000e+00 
1.0015608e+01 2.0210439e-02 0.0000000e+00 
1.0066931e+01 1.0993915e-03 0.0000000e+00 
1.0010279e+01 -2.1099853e-03 0.0000000e+00 
9.9842310e+00 -4.1359031e-25 0.0000000e+00 
9.9798298e+00 -3.4147727e-03 0.0000000e+00 
9.9834232e+00 -2.6829543e-03 0.0000000e+00 
9.9945316e+00 1.9707646e-02 0.0000000e+00 
9.9655905e+00 9.7465636e-03 0.0000000e+00 
1.0020341e+01 1.9848697e-02 0.0000000e+00 
9.9863052e+00 5.9747882e-03 0.0000000e+00 
1.0077506e+01 1.4423499e-03 0.0000000e+00 
9.9951363e+00 1.2910807e-02 0.0000000e+00 
9.9804640e+00 2.3390304e-02 0.0000000e+00 
9.9706144e+00 3.1656155e-03 0.0000000e+00 
1.0036054e+01 1.2693075e-02 0.0000000e+00 
1.0006008e+01 -3.9338195e-03 0.0000000e+00 
9.9686222e+00 1.5531017e-02 0.0000000e+00 
1.0002987e+01 -3.6354873e-03 0.0000000e+00 
9.9817591e+00 -4.5164637e-03 0.0000000e+00 
9.9804659e+00 -3.2917282e-04 0.0000000e+00 
9.9782972e+00 2.0223737e-02 0.0000000e+00 
9.9797792e+00 2.2610867e-02 0.0000000e+00 
1.0001127e+01 -3.6772834e-03 0.0000000e+00 
1.0089454e+01 1.8208548e-03 0.0000000e+00 
9.9756508e+00 -2.7631284e-03 0.0000000e+00 
9.9848614e+00 -1.9716648e-03 0.0000000e+00 
1.0016689e+01 2.1040168e-02 0.0000000e+00 
1.0000705e+01 -4.1528740e-03 0.0000000e+00 
1.0022771e+01 2.2619789e-02 0.0000000e+00 
1.0043313e+01 1.4557324e-02 0.0000000e+00 
9.9833784e+00 -4.8338696e-03 0.0000000e+00 
9.9798059e+00 -5.1979716e-03 0.0000000e+00 
9.9763689e+00 2.6258254e-02 0.0000000e+00 
9.9920139e+00 2.0879319e-02 0.0000000e+00 
1.0102943e+01 2.2509128e-03 0.0000000e+00 
1.0001003e+01 -4.6840301e-03 0.0000000e+00 
9.9789038e+00 -6.9168804e-04 0.0000000e+00 
9.9861345e+00 -4.1359031e-25 0.0000000e+00 
9.9604301e+00 7.3154005e-03 0.0000000e+00 
9.9945326e+00 1.1186900e-02 0.0000000e+00 
9.9801292e+00 -6.7219641e-03 0.0000000e+00 
9.9857140e+00 2.9218278e-03 0.0000000e+00 
9.9634371e+00 1.4411730e-02 0.0000000e+00 
9.9850960e+00 -4.3720119e-03 0.0000000e+00 
9.9734888e+00 2.4641268e-02 0.0000000e+00 
1.0001781e+01 -5.2607446e-03 0.0000000e+00 
9.9707355e+00 3.2958810e-04 0.0000000e+00 
9.9674282e+00 -3.5292725e-04 0.0000000e+00 
1.0051743e+01 1.6575359e-02 0.0000000e+00 
9.9739189e+00 2.0009477e-02 0.0000000e+00 
1.0025507e+01 2.5579870e-02 0.0000000e+00 
1.0118114e+01 2.7419461e-03 0.0000000e+00 
9.9651108e+00 7.0261734e-04 0.0000000e+00 
9.9799385e+00 -4.3071071e-03 0.0000000e+00 
9.9829159e+00 -7.6354970e-03 0.0000000e+00 
1.0017651e+01 2.1443045e-02 0.0000000e+00 
9.9582567e+00 6.5670471e-04 0.0000000e+00 
9.9715595e+00 2.9219402e-02 0.0000000e+00 
1.0002986e+01 -5.8762971e-03 0.0000000e+00 
9.9746532e+00 -6.9610267e-03 0.0000000e+00 
9.9872112e+00 -3.0169692e-03 0.0000000e+00 
9.9889574e+00 2.1741038e-02 0.0000000e+00 
9.9498444e+00 7.0496445e-04 0.0000000e+00 
1.0061440e+01 1.8732389e-02 0.0000000e+00 
1.0135082e+01 3.3000330e-03 0.0000000e+00 
9.9852781e+00 -7.5597875e-03 0.0000000e+00 
9.9802265e+00 -9.5274597e-03 0.0000000e+00 
9.9659510e+00 2.6517756e-02 0.0000000e+00 
1.0028575e+01 2.8692817e-02 0.0000000e+00 
1.0004633e+01 -6.5224725e-03 0.0000000e+00 
9.9399176e+00 7.8834640e-04 0.0000000e+00 
9.9938650e+00 8.4910532e-03 0.0000000e+00 
9.9548178e+00 3.7958161e-03 0.0000000e+00 
9.9577560e+00 1.2422650e-02 0.0000000e+00 
9.9853668e+00 -1.2879142e-03 0.0000000e+00 
1.0012018e+01 3.6833135e-03 0.0000000e+00 
9.9688797e+00 1.9045511e-02 0.0000000e+00 
9.9811134e+00 -1.0951576e-02 0.0000000e+00 
1.0012158e+01 2.3593798e-03 0.0000000e+00 
9.9890556e+00 -4.1359031e-25 0.0000000e+00 
1.0013581e+01 3.0087461e-03 0.0000000e+00 
9.9641848e+00 -5.0829058e-03 0.0000000e+00 
9.9659290e+00 3.2202188e-02 0.0000000e+00 
9.9877434e+00 -6.4995266e-03 0.0000000e+00 
1.0018423e+01 2.1257576e-02 0.0000000e+00 
9.9284468e+00 8.8890246e-04 0.0000000e+00 
1.0153944e+01 3.9280895e-03 0.0000000e+00 
1.0015533e+01 3.2764892e-03 0.0000000e+00 
1.0072498e+01 2.1002883e-02 0.0000000e+00 
1.0006769e+01 -7.1890289e-03 0.0000000e+00 
9.9798546e+00 -9.5241945e-03 0.0000000e+00 
9.9852934e+00 2.2155751e-02 0.0000000e+00 
9.9849529e+00 -1.1580928e-02 0.0000000e+00 
1.0018259e+01 3.7367914e-03 0.0000000e+00 
1.0031993e+01 3.1904589e-02 0.0000000e+00 
9.9740925e+00 -1.2386574e-02 0.0000000e+00 
9.9153490e+00 1.0011048e-03 0.0000000e+00 
9.9570055e+00 2.8120363e-02 0.0000000e+00 
9.9906902e+00 -4.3232134e-03 0.0000000e+00 
1.0021770e+01 4.2239474e-03 0.0000000e+00 
1.0174763e+01 4.6249344e-03 0.0000000e+00 
1.0009457e+01 -7.8635802e-03 0.0000000e+00 
9.9813833e+00 -1.5043985e-02 0.0000000e+00 
9.9882307e+00 -1.0977912e-02 0.0000000e+00 
9.9931288e+00 4.5719636e-03 0.0000000e+00 
9.9516039e+00 9.3280980e-03 0.0000000e+00 
9.9593592e+00 3.5109568e-02 0.0000000e+00 
9.9487915e+00 -1.0768470e-03 0.0000000e+00 
1.0084998e+01 2.3348125e-02 0.0000000e+00 
1.0026094e+01 4.7422126e-03 0.0000000e+00 
9.9631233e+00 1.7105313e-02 0.0000000e+00 
9.9005260e+00 1.1225693e-03 0.0000000e+00 
9.9853592e+00 -6.9216853e-03 0.0000000e+00 
1.0037416e+01 -1.8004840e-03 0.0000000e+00 
1.0018923e+01 2.0284893e-02 0.0000000e+00 
1.0044176e+01 -1.6077786e-03 0.0000000e+00 
9.9829884e+00 -1.6285023e-02 0.0000000e+00 
9.9609756e+00 -1.1293702e-02 0.0000000e+00 
1.0029167e+01 -2.0866089e-03 0.0000000e+00 
9.9932461e+00 -4.1359031e-25 0.0000000e+00 