# vtk DataFile Version 4.0
vtk output
ASCII
DATASET UNSTRUCTURED_GRID
POINTS 3806 float
2.0000000e+01 1.0000000e+01 0.0000000e+00 
1.9750000e+01 1.0000000e+01 0.0000000e+00 
2.0000000e+01 9.7500000e+00 0.0000000e+00 
1.9625000e+01 9.7427902e+00 0.0000000e+00 
2.0000000e+01 9.5000000e+00 0.0000000e+00 
1.9500000e+01 1.0000000e+01 0.0000000e+00 
1.9750000e+01 9.5262804e+00 0.0000000e+00 
1.9375000e+01 9.7427902e+00 0.0000000e+00 
1.9500000e+01 9.5262804e+00 0.0000000e+00 
1.9250000e+01 1.0000000e+01 0.0000000e+00 
2.0000000e+01 9.2500000e+00 0.0000000e+00 
1.9645800e+01 9.2998104e+00 0.0000000e+00 
1.9250000e+01 9.5262804e+00 0.0000000e+00 
1.9125000e+01 9.7427902e+00 0.0000000e+00 
1.9375000e+01 9.3097696e+00 0.0000000e+00 
1.9750000e+01 9.0932703e+00 0.0000000e+00 
2.0000000e+01 9.0000000e+00 0.0000000e+00 
1.9000000e+01 1.0000000e+01 0.0000000e+00 
1.9500000e+01 9.0932703e+00 0.0000000e+00 
1.9000000e+01 9.5262804e+00 0.0000000e+00 
1.9125000e+01 9.3097696e+00 0.0000000e+00 
1.8875000e+01 9.7427902e+00 0.0000000e+00 
1.9696400e+01 8.8762598e+00 0.0000000e+00 
1.9250000e+01 9.0932703e+00 0.0000000e+00 
2.0000000e+01 8.7500000e+00 0.0000000e+00 
1.8750000e+01 1.0000000e+01 0.0000000e+00 
1.9375000e+01 8.8767595e+00 0.0000000e+00 
1.8875000e+01 9.3097696e+00 0.0000000e+00 
1.8750000e+01 9.5262804e+00 0.0000000e+00 
1.9000000e+01 9.0932703e+00 0.0000000e+00 
1.9750000e+01 8.6602497e+00 0.0000000e+00 
1.8625000e+01 9.7427902e+00 0.0000000e+00 
1.9125000e+01 8.8767595e+00 0.0000000e+00 
1.9500000e+01 8.6602497e+00 0.0000000e+00 
2.0000000e+01 8.5000000e+00 0.0000000e+00 
1.8500000e+01 1.0000000e+01 0.0000000e+00 
1.9250000e+01 8.6602497e+00 0.0000000e+00 
1.8625000e+01 9.3097696e+00 0.0000000e+00 
1.8750000e+01 9.0932703e+00 0.0000000e+00 
1.8500000e+01 9.5262804e+00 0.0000000e+00 
1.9645800e+01 8.4531202e+00 0.0000000e+00 
1.8875000e+01 8.8767595e+00 0.0000000e+00 
1.8375000e+01 9.7427902e+00 0.0000000e+00 
1.9000000e+01 8.6602497e+00 0.0000000e+00 
1.9375000e+01 8.4437504e+00 0.0000000e+00 
2.0000000e+01 8.2500000e+00 0.0000000e+00 
1.8250000e+01 1.0000000e+01 0.0000000e+00 
1.8500000e+01 9.0932703e+00 0.0000000e+00 
1.8375000e+01 9.3097696e+00 0.0000000e+00 
1.8625000e+01 8.8767595e+00 0.0000000e+00 
1.9125000e+01 8.4437504e+00 0.0000000e+00 
1.9750000e+01 8.2272396e+00 0.0000000e+00 
1.8250000e+01 9.5262804e+00 0.0000000e+00 
1.8750000e+01 8.6602497e+00 0.0000000e+00 
1.9500000e+01 8.2272396e+00 0.0000000e+00 
1.8125000e+01 9.7427902e+00 0.0000000e+00 
1.8875000e+01 8.4437504e+00 0.0000000e+00 
1.9250000e+01 8.2272396e+00 0.0000000e+00 
1.8250000e+01 9.0932703e+00 0.0000000e+00 
1.8375000e+01 8.8767595e+00 0.0000000e+00 
1.8125000e+01 9.3097696e+00 0.0000000e+00 
2.0000000e+01 8.0000000e+00 0.0000000e+00 
1.8000000e+01 1.0000000e+01 0.0000000e+00 
1.8500000e+01 8.6602497e+00 0.0000000e+00 
1.9625000e+01 8.0107298e+00 0.0000000e+00 
1.9000000e+01 8.2272396e+00 0.0000000e+00 
1.8000000e+01 9.5262804e+00 0.0000000e+00 
1.8625000e+01 8.4437504e+00 0.0000000e+00 
1.9375000e+01 8.0107298e+00 0.0000000e+00 
1.7875000e+01 9.7834902e+00 0.0000000e+00 
1.8750000e+01 8.2272396e+00 0.0000000e+00 
1.9125000e+01 8.0107298e+00 0.0000000e+00 
1.8125000e+01 8.8767595e+00 0.0000000e+00 
1.8000000e+01 9.0932703e+00 0.0000000e+00 
1.8250000e+01 8.6602497e+00 0.0000000e+00 
1.9750000e+01 7.7942300e+00 0.0000000e+00 
1.7875000e+01 9.3097696e+00 0.0000000e+00 
2.0000000e+01 7.7500000e+00 0.0000000e+00 
1.7750000e+01 1.0000000e+01 0.0000000e+00 
1.8375000e+01 8.4437504e+00 0.0000000e+00 
1.9500000e+01 7.7942300e+00 0.0000000e+00 
1.8875000e+01 8.0107298e+00 0.0000000e+00 
1.7750000e+01 9.5262804e+00 0.0000000e+00 
1.8500000e+01 8.2272396e+00 0.0000000e+00 
1.9250000e+01 7.7942300e+00 0.0000000e+00 
1.7625000e+01 9.7834902e+00 0.0000000e+00 
1.7875000e+01 8.8767595e+00 0.0000000e+00 
1.8000000e+01 8.6602497e+00 0.0000000e+00 
1.8625000e+01 8.0107298e+00 0.0000000e+00 
1.9000000e+01 7.7942300e+00 0.0000000e+00 
1.7750000e+01 9.0932703e+00 0.0000000e+00 
1.8125000e+01 8.4437504e+00 0.0000000e+00 
1.9645800e+01 7.5647702e+00 0.0000000e+00 
1.7625000e+01 9.3097696e+00 0.0000000e+00 
1.8250000e+01 8.2272396e+00 0.0000000e+00 
2.0000000e+01 7.5000000e+00 0.0000000e+00 
1.7500000e+01 1.0000000e+01 0.0000000e+00 
1.9375000e+01 7.5777202e+00 0.0000000e+00 
1.8750000e+01 7.7942300e+00 0.0000000e+00 
1.7500000e+01 9.5262804e+00 0.0000000e+00 
1.8375000e+01 8.0107298e+00 0.0000000e+00 
1.9125000e+01 7.5777202e+00 0.0000000e+00 
1.7750000e+01 8.6602497e+00 0.0000000e+00 
1.7625000e+01 8.8767595e+00 0.0000000e+00 
1.7875000e+01 8.4437504e+00 0.0000000e+00 
1.7375000e+01 9.7427902e+00 0.0000000e+00 
1.9768499e+01 7.3630099e+00 0.0000000e+00 
1.7500000e+01 9.0932703e+00 0.0000000e+00 
1.8500000e+01 7.7942300e+00 0.0000000e+00 
1.8875000e+01 7.5777202e+00 0.0000000e+00 
1.8000000e+01 8.2272396e+00 0.0000000e+00 
1.9500000e+01 7.3612199e+00 0.0000000e+00 
1.7375000e+01 9.3097696e+00 0.0000000e+00 
1.8125000e+01 8.0107298e+00 0.0000000e+00 
1.9250000e+01 7.3612199e+00 0.0000000e+00 
2.0000000e+01 7.2500000e+00 0.0000000e+00 
1.7250000e+01 1.0000000e+01 0.0000000e+00 
1.8625000e+01 7.5777202e+00 0.0000000e+00 
1.7250000e+01 9.5262804e+00 0.0000000e+00 
1.8250000e+01 7.7942300e+00 0.0000000e+00 
1.9000000e+01 7.3612199e+00 0.0000000e+00 
1.7500000e+01 8.6602497e+00 0.0000000e+00 
1.7625000e+01 8.4437504e+00 0.0000000e+00 
1.7375000e+01 8.8767595e+00 0.0000000e+00 
1.7750000e+01 8.2272396e+00 0.0000000e+00 
1.9696400e+01 7.1390800e+00 0.0000000e+00 
1.7125000e+01 9.7427902e+00 0.0000000e+00 
1.7250000e+01 9.0932703e+00 0.0000000e+00 
1.7875000e+01 8.0107298e+00 0.0000000e+00 
1.8375000e+01 7.5777202e+00 0.0000000e+00 
1.8750000e+01 7.3612199e+00 0.0000000e+00 
1.9375000e+01 7.1447101e+00 0.0000000e+00 
1.7125000e+01 9.3097696e+00 0.0000000e+00 
1.8000000e+01 7.7942300e+00 0.0000000e+00 
1.9125000e+01 7.1447101e+00 0.0000000e+00 
2.0000000e+01 7.0000000e+00 0.0000000e+00 
1.7000000e+01 1.0000000e+01 0.0000000e+00 
1.8500000e+01 7.3612199e+00 0.0000000e+00 
1.7000000e+01 9.5262804e+00 0.0000000e+00 
1.7375000e+01 8.4437504e+00 0.0000000e+00 
1.7250000e+01 8.6602497e+00 0.0000000e+00 
1.8125000e+01 7.5777202e+00 0.0000000e+00 
1.7500000e+01 8.2272396e+00 0.0000000e+00 
1.8875000e+01 7.1447101e+00 0.0000000e+00 
1.9750000e+01 6.9281998e+00 0.0000000e+00 
1.7125000e+01 8.8767595e+00 0.0000000e+00 
1.7625000e+01 8.0107298e+00 0.0000000e+00 
1.9500000e+01 6.9281998e+00 0.0000000e+00 
1.7000000e+01 9.0932703e+00 0.0000000e+00 
1.6875000e+01 9.7427902e+00 0.0000000e+00 
1.7750000e+01 7.7942300e+00 0.0000000e+00 
1.9250000e+01 6.9281998e+00 0.0000000e+00 
1.8250000e+01 7.3612199e+00 0.0000000e+00 
1.8625000e+01 7.1447101e+00 0.0000000e+00 
1.6875000e+01 9.3097696e+00 0.0000000e+00 
1.7875000e+01 7.5777202e+00 0.0000000e+00 
1.9000000e+01 6.9281998e+00 0.0000000e+00 
2.0000000e+01 6.7500000e+00 0.0000000e+00 
1.6750000e+01 1.0000000e+01 0.0000000e+00 
1.7125000e+01 8.4437504e+00 0.0000000e+00 
1.7250000e+01 8.2272396e+00 0.0000000e+00 
1.6750000e+01 9.5262804e+00 0.0000000e+00 
1.8375000e+01 7.1447101e+00 0.0000000e+00 
1.7000000e+01 8.6602497e+00 0.0000000e+00 
1.7375000e+01 8.0107298e+00 0.0000000e+00 
1.9645800e+01 6.7180800e+00 0.0000000e+00 
1.8000000e+01 7.3612199e+00 0.0000000e+00 
1.8750000e+01 6.9281998e+00 0.0000000e+00 
1.6875000e+01 8.8767595e+00 0.0000000e+00 
1.7500000e+01 7.7942300e+00 0.0000000e+00 
1.9375000e+01 6.7117000e+00 0.0000000e+00 
1.6750000e+01 9.0932703e+00 0.0000000e+00 
1.6625000e+01 9.7427902e+00 0.0000000e+00 
1.7625000e+01 7.5777202e+00 0.0000000e+00 
1.9125000e+01 6.7117000e+00 0.0000000e+00 
1.8125000e+01 7.1447101e+00 0.0000000e+00 
1.8500000e+01 6.9281998e+00 0.0000000e+00 
1.6625000e+01 9.3097696e+00 0.0000000e+00 
1.7750000e+01 7.3612199e+00 0.0000000e+00 
1.8875000e+01 6.7117000e+00 0.0000000e+00 
1.7000000e+01 8.2272396e+00 0.0000000e+00 
1.6875000e+01 8.4437504e+00 0.0000000e+00 
1.7125000e+01 8.0107298e+00 0.0000000e+00 
2.0000000e+01 6.5000000e+00 0.0000000e+00 
1.6500000e+01 1.0000000e+01 0.0000000e+00 
1.9750000e+01 6.4951901e+00 0.0000000e+00 
1.6750000e+01 8.6602497e+00 0.0000000e+00 
1.7250000e+01 7.7942300e+00 0.0000000e+00 
1.6500000e+01 9.5262804e+00 0.0000000e+00 
1.8250000e+01 6.9281998e+00 0.0000000e+00 
1.9500000e+01 6.4951901e+00 0.0000000e+00 
1.6625000e+01 8.8767595e+00 0.0000000e+00 
1.7875000e+01 7.1447101e+00 0.0000000e+00 
1.8625000e+01 6.7117000e+00 0.0000000e+00 
1.7375000e+01 7.5777202e+00 0.0000000e+00 
1.9250000e+01 6.4951901e+00 0.0000000e+00 
1.6500000e+01 9.0932703e+00 0.0000000e+00 
1.6375000e+01 9.7427902e+00 0.0000000e+00 
1.7500000e+01 7.3612199e+00 0.0000000e+00 
1.9000000e+01 6.4951901e+00 0.0000000e+00 
1.8000000e+01 6.9281998e+00 0.0000000e+00 
1.8375000e+01 6.7117000e+00 0.0000000e+00 
1.6375000e+01 9.3097696e+00 0.0000000e+00 
1.6750000e+01 8.2272396e+00 0.0000000e+00 
1.6875000e+01 8.0107298e+00 0.0000000e+00 
1.7625000e+01 7.1447101e+00 0.0000000e+00 
1.6625000e+01 8.4437504e+00 0.0000000e+00 
1.8750000e+01 6.4951901e+00 0.0000000e+00 
1.7000000e+01 7.7942300e+00 0.0000000e+00 
1.9625000e+01 6.2786798e+00 0.0000000e+00 
1.6500000e+01 8.6602497e+00 0.0000000e+00 
2.0000000e+01 6.2500000e+00 0.0000000e+00 
1.6250000e+01 1.0000000e+01 0.0000000e+00 
1.7125000e+01 7.5777202e+00 0.0000000e+00 
1.9375000e+01 6.2786798e+00 0.0000000e+00 
1.6250000e+01 9.5262804e+00 0.0000000e+00 
1.8125000e+01 6.7117000e+00 0.0000000e+00 
1.6375000e+01 8.8767595e+00 0.0000000e+00 
1.7750000e+01 6.9281998e+00 0.0000000e+00 
1.7250000e+01 7.3612199e+00 0.0000000e+00 
1.8500000e+01 6.4951901e+00 0.0000000e+00 
1.9125000e+01 6.2786798e+00 0.0000000e+00 
1.6250000e+01 9.0932703e+00 0.0000000e+00 
1.7375000e+01 7.1447101e+00 0.0000000e+00 
1.6125000e+01 9.7427902e+00 0.0000000e+00 
[...]
POINT_DATA 3806
FIELD FieldData 2
VELOCITY 3 3806  float
1.0000025e+01 6.0746076e-25 0.0000000e+00 
1.0000372e+01 -1.7577588e-24 0.0000000e+00 
9.9999371e+00 -3.3989162e-04 0.0000000e+00 
1.0000447e+01 -3.6322718e-04 0.0000000e+00 
9.9999971e+00 -6.7964877e-04 0.0000000e+00 
1.0000730e+01 -1.3958673e-24 0.0000000e+00 
1.0000324e+01 -6.4952468e-04 0.0000000e+00 
1.0000802e+01 -3.8434155e-04 0.0000000e+00 
1.0000665e+01 -6.7658897e-04 0.0000000e+00 
1.0001109e+01 -1.3958673e-24 0.0000000e+00 
9.9999666e+00 -9.8446046e-04 0.0000000e+00 
1.0000413e+01 -9.5300592e-04 0.0000000e+00 
1.0001024e+01 -7.2164752e-04 0.0000000e+00 
1.0001180e+01 -4.1519984e-04 0.0000000e+00 
1.0000768e+01 -9.9843065e-04 0.0000000e+00 
1.0000258e+01 -1.1903712e-03 0.0000000e+00 
9.9999781e+00 -1.2822396e-03 0.0000000e+00 
1.0001519e+01 -3.8774091e-25 0.0000000e+00 
1.0000553e+01 -1.2425950e-03 0.0000000e+00 
1.0001411e+01 -7.8701798e-04 0.0000000e+00 
1.0001116e+01 -1.0777505e-03 0.0000000e+00 
1.0001592e+01 -4.5733675e-04 0.0000000e+00 
1.0000290e+01 -1.4328057e-03 0.0000000e+00 
1.0000863e+01 -1.3245026e-03 0.0000000e+00 
9.9999580e+00 -1.5437452e-03 0.0000000e+00 
1.0001969e+01 -3.8774091e-25 0.0000000e+00 
1.0000637e+01 -1.5334866e-03 0.0000000e+00 
1.0001496e+01 -1.1863458e-03 0.0000000e+00 
1.0001838e+01 -8.7420375e-04 0.0000000e+00 
1.0001198e+01 -1.4436443e-03 0.0000000e+00 
1.0000178e+01 -1.6401324e-03 0.0000000e+00 
1.0002051e+01 -5.1192398e-04 0.0000000e+00 
1.0000925e+01 -1.6545098e-03 0.0000000e+00 
1.0000407e+01 -1.7081995e-03 0.0000000e+00 
9.9999905e+00 -1.7422854e-03 0.0000000e+00 
1.0002474e+01 -3.8774091e-25 0.0000000e+00 
1.0000645e+01 -1.8196382e-03 0.0000000e+00 
1.0001917e+01 -1.3279925e-03 0.0000000e+00 
1.0001564e+01 -1.6026776e-03 0.0000000e+00 
1.0002315e+01 -9.8632067e-04 0.0000000e+00 
1.0000255e+01 -1.8327958e-03 0.0000000e+00 
1.0001238e+01 -1.8196794e-03 0.0000000e+00 
1.0002568e+01 -5.8027596e-04 0.0000000e+00 
1.0000899e+01 -1.9811494e-03 0.0000000e+00 
1.0000467e+01 -1.9489843e-03 0.0000000e+00 
9.9999208e+00 -1.9440502e-03 0.0000000e+00 
1.0003045e+01 1.1373733e-24 0.0000000e+00 
1.0001974e+01 -1.8065152e-03 0.0000000e+00 
1.0002393e+01 -1.5069743e-03 0.0000000e+00 
1.0001584e+01 -2.0353380e-03 0.0000000e+00 
1.0000676e+01 -2.0993093e-03 0.0000000e+00 
1.0000067e+01 -1.9649924e-03 0.0000000e+00 
1.0002855e+01 -1.1268597e-03 0.0000000e+00 
1.0001177e+01 -2.1970582e-03 0.0000000e+00 
1.0000199e+01 -2.0386816e-03 0.0000000e+00 
1.0003162e+01 -6.6229317e-04 0.0000000e+00 
1.0000902e+01 -2.3059347e-03 0.0000000e+00 
1.0000338e+01 -2.1680824e-03 0.0000000e+00 
1.0002438e+01 -2.0619561e-03 0.0000000e+00 
1.0001973e+01 -2.3082753e-03 0.0000000e+00 
1.0002934e+01 -1.7292392e-03 0.0000000e+00 
1.0000035e+01 -2.0417115e-03 0.0000000e+00 
1.0003695e+01 1.1373733e-24 0.0000000e+00 
1.0001487e+01 -2.4741676e-03 0.0000000e+00 
1.0000200e+01 -2.1026991e-03 0.0000000e+00 
1.0000485e+01 -2.3570235e-03 0.0000000e+00 
1.0003477e+01 -1.3049134e-03 0.0000000e+00 
1.0001149e+01 -2.5760732e-03 0.0000000e+00 
1.0000322e+01 -2.2133433e-03 0.0000000e+00 
1.0003864e+01 -6.4825424e-04 0.0000000e+00 
1.0000646e+01 -2.6100804e-03 0.0000000e+00 
1.0000450e+01 -2.3779138e-03 0.0000000e+00 
1.0002416e+01 -2.6468409e-03 0.0000000e+00 
1.0002969e+01 -2.3758723e-03 0.0000000e+00 
1.0001836e+01 -2.8210513e-03 0.0000000e+00 
9.9999228e+00 -2.1170296e-03 0.0000000e+00 
1.0003557e+01 -2.0003414e-03 0.0000000e+00 
9.9998741e+00 -2.1237235e-03 0.0000000e+00 
1.0004472e+01 -4.1359031e-25 0.0000000e+00 
1.0001425e+01 -2.9181140e-03 0.0000000e+00 
9.9999161e+00 -2.2055272e-03 0.0000000e+00 
1.0000583e+01 -2.6071423e-03 0.0000000e+00 
1.0004190e+01 -1.5103577e-03 0.0000000e+00 
1.0000822e+01 -2.9351639e-03 0.0000000e+00 
9.9999208e+00 -2.3451275e-03 0.0000000e+00 
1.0004659e+01 -7.6401542e-04 0.0000000e+00 
1.0002924e+01 -3.0617432e-03 0.0000000e+00 
1.0002234e+01 -3.2485598e-03 0.0000000e+00 
1.0000725e+01 -2.9074706e-03 0.0000000e+00 
9.9999332e+00 -2.5442108e-03 0.0000000e+00 
1.0003583e+01 -2.7587588e-03 0.0000000e+00 
1.0001737e+01 -3.3426788e-03 0.0000000e+00 
1.0000169e+01 -2.1871543e-03 0.0000000e+00 
1.0004285e+01 -2.3320282e-03 0.0000000e+00 
1.0001019e+01 -3.3424010e-03 0.0000000e+00 
1.0000055e+01 -2.1662789e-03 0.0000000e+00 
1.0005367e+01 -7.2378304e-25 0.0000000e+00 
1.0000231e+01 -2.2978336e-03 0.0000000e+00 
9.9999475e+00 -2.8115977e-03 0.0000000e+00 
1.0005020e+01 -1.7575002e-03 0.0000000e+00 
1.0000880e+01 -3.2879570e-03 0.0000000e+00 
1.0000275e+01 -2.4631307e-03 0.0000000e+00 
1.0002693e+01 -3.7700210e-03 0.0000000e+00 
1.0003513e+01 -3.5657121e-03 0.0000000e+00 
1.0002093e+01 -3.8629316e-03 0.0000000e+00 
1.0005557e+01 -1.0566228e-03 0.0000000e+00 
9.9997387e+00 -2.1303087e-03 0.0000000e+00 
1.0004297e+01 -3.2232883e-03 0.0000000e+00 
9.9999609e+00 -3.1555716e-03 0.0000000e+00 
1.0000316e+01 -2.6949148e-03 0.0000000e+00 
1.0001243e+01 -3.8444584e-03 0.0000000e+00 
9.9996395e+00 -2.2129104e-03 0.0000000e+00 
1.0005132e+01 -2.7325468e-03 0.0000000e+00 
1.0001052e+01 -3.7602675e-03 0.0000000e+00 
9.9995461e+00 -2.3488621e-03 0.0000000e+00 
9.9999094e+00 -2.0536964e-03 0.0000000e+00 
1.0006394e+01 -7.2378304e-25 0.0000000e+00 
1.0000356e+01 -2.9982477e-03 0.0000000e+00 
1.0006003e+01 -2.0687780e-03 0.0000000e+00 
9.9999733e+00 -3.5867183e-03 0.0000000e+00 
9.9994431e+00 -2.5415719e-03 0.0000000e+00 
1.0003226e+01 -4.4015432e-03 0.0000000e+00 
1.0002502e+01 -4.4950517e-03 0.0000000e+00 
1.0004200e+01 -4.1743233e-03 0.0000000e+00 
1.0001498e+01 -4.4569736e-03 0.0000000e+00 
1.0000013e+01 -2.0786154e-03 0.0000000e+00 
1.0006649e+01 -1.2392177e-03 0.0000000e+00 
1.0005132e+01 -3.7820342e-03 0.0000000e+00 
1.0001243e+01 -4.3389886e-03 0.0000000e+00 
1.0000392e+01 -3.3824649e-03 0.0000000e+00 
9.9993258e+00 -2.8012116e-03 0.0000000e+00 
9.9999266e+00 -2.1984763e-03 0.0000000e+00 
1.0006124e+01 -3.2113125e-03 0.0000000e+00 
9.9999847e+00 -4.1183624e-03 0.0000000e+00 
9.9998436e+00 -2.3509550e-03 0.0000000e+00 
1.0000031e+01 -2.0443208e-03 0.0000000e+00 
1.0007606e+01 -8.2718061e-25 0.0000000e+00 
9.9991922e+00 -3.1353675e-03 0.0000000e+00 
1.0007154e+01 -2.4367408e-03 0.0000000e+00 
1.0002977e+01 -5.2587194e-03 0.0000000e+00 
1.0003849e+01 -5.1628407e-03 0.0000000e+00 
1.0000425e+01 -3.8592550e-03 0.0000000e+00 
1.0001793e+01 -5.1990938e-03 0.0000000e+00 
9.9997473e+00 -2.5636679e-03 0.0000000e+00 
9.9997997e+00 -1.9758430e-03 0.0000000e+00 
1.0005004e+01 -4.9065468e-03 0.0000000e+00 
1.0001458e+01 -5.0420989e-03 0.0000000e+00 
9.9996452e+00 -2.0488577e-03 0.0000000e+00 
1.0006114e+01 -4.4532618e-03 0.0000000e+00 
1.0007936e+01 -1.4620717e-03 0.0000000e+00 
9.9999962e+00 -4.7670417e-03 0.0000000e+00 
9.9994822e+00 -2.1591221e-03 0.0000000e+00 
9.9990396e+00 -3.5539777e-03 0.0000000e+00 
9.9996328e+00 -2.8431811e-03 0.0000000e+00 
1.0007292e+01 -3.7862740e-03 0.0000000e+00 
1.0000452e+01 -4.4432017e-03 0.0000000e+00 
9.9993010e+00 -2.3261199e-03 0.0000000e+00 
9.9999638e+00 -1.8450121e-03 0.0000000e+00 
1.0009035e+01 -8.2718061e-25 0.0000000e+00 
1.0003531e+01 -6.1777038e-03 0.0000000e+00 
1.0002136e+01 -6.0940627e-03 0.0000000e+00 
1.0008508e+01 -2.8771784e-03 0.0000000e+00 
9.9994946e+00 -3.1976143e-03 0.0000000e+00 
1.0004579e+01 -6.0774232e-03 0.0000000e+00 
1.0001701e+01 -5.8915638e-03 0.0000000e+00 
9.9997683e+00 -1.8662957e-03 0.0000000e+00 
9.9988642e+00 -4.0696659e-03 0.0000000e+00 
9.9990969e+00 -2.5513319e-03 0.0000000e+00 
1.0005950e+01 -5.7846806e-03 0.0000000e+00 
1.0000008e+01 -5.5530835e-03 0.0000000e+00 
9.9995852e+00 -1.9491268e-03 0.0000000e+00 
1.0007271e+01 -5.2572242e-03 0.0000000e+00 
1.0009456e+01 -1.7278481e-03 0.0000000e+00 
1.0000469e+01 -5.1523387e-03 0.0000000e+00 
9.9994097e+00 -2.0773928e-03 0.0000000e+00 
9.9993248e+00 -3.6374645e-03 0.0000000e+00 
9.9988632e+00 -2.8408468e-03 0.0000000e+00 
1.0008672e+01 -4.4742734e-03 0.0000000e+00 
9.9986620e+00 -4.6981969e-03 0.0000000e+00 
9.9992218e+00 -2.2563525e-03 0.0000000e+00 
1.0002538e+01 -7.1700038e-03 0.0000000e+00 
1.0004180e+01 -7.2806627e-03 0.0000000e+00 
1.0001977e+01 -6.9140694e-03 0.0000000e+00 
1.0000064e+01 -1.7031220e-03 0.0000000e+00 
1.0010724e+01 4.1359031e-25 0.0000000e+00 
9.9998713e+00 -1.6959064e-03 0.0000000e+00 
1.0005439e+01 -7.1736448e-03 0.0000000e+00 
1.0000021e+01 -6.5013147e-03 0.0000000e+00 
1.0010106e+01 -3.4033819e-03 0.0000000e+00 
9.9985914e+00 -3.2026498e-03 0.0000000e+00 
9.9996643e+00 -1.7349417e-03 0.0000000e+00 
1.0007065e+01 -6.8357438e-03 0.0000000e+00 
9.9991140e+00 -4.1759484e-03 0.0000000e+00 
9.9990168e+00 -2.4917144e-03 0.0000000e+00 
1.0000472e+01 -6.0088043e-03 0.0000000e+00 
9.9994421e+00 -1.8295987e-03 0.0000000e+00 
1.0008639e+01 -6.2183039e-03 0.0000000e+00 
1.0011254e+01 -2.0448207e-03 0.0000000e+00 
9.9984293e+00 -5.4590544e-03 0.0000000e+00 
9.9992008e+00 -1.9698329e-03 0.0000000e+00 
9.9982719e+00 -3.6469428e-03 0.0000000e+00 
9.9987888e+00 -2.7899137e-03 0.0000000e+00 
1.0010303e+01 -5.2957833e-03 0.0000000e+00 
1.0003011e+01 -8.4607694e-03 0.0000000e+00 
1.0002293e+01 -8.1418883e-03 0.0000000e+00 
9.9988508e+00 -4.8295143e-03 0.0000000e+00 
1.0004942e+01 -8.6019253e-03 0.0000000e+00 
9.9989386e+00 -2.1579484e-03 0.0000000e+00 
1.0000038e+01 -7.6419069e-03 0.0000000e+00 
9.9997501e+00 -1.5462983e-03 0.0000000e+00 
1.0006454e+01 -8.4853079e-03 0.0000000e+00 
1.0000115e+01 -1.4468085e-03 0.0000000e+00 
1.0012722e+01 4.1359031e-25 0.0000000e+00 
1.0000457e+01 -7.0396424e-03 0.0000000e+00 
9.9995594e+00 -1.6062362e-03 0.0000000e+00 
1.0011998e+01 -4.0310086e-03 0.0000000e+00 
9.9985342e+00 -3.1591631e-03 0.0000000e+00 
1.0008385e+01 -8.0917608e-03 0.0000000e+00 
9.9978943e+00 -4.1865469e-03 0.0000000e+00 
9.9981623e+00 -6.3761673e-03 0.0000000e+00 
9.9986439e+00 -2.3992341e-03 0.0000000e+00 
9.9993439e+00 -1.7005843e-03 0.0000000e+00 
1.0010259e+01 -7.3654037e-03 0.0000000e+00 
9.9985218e+00 -5.6184893e-03 0.0000000e+00 
1.0013387e+01 -2.4224292e-03 0.0000000e+00 
9.9990883e+00 -1.8396436e-03 0.0000000e+00 
9.9982471e+00 -3.6098883e-03 0.0000000e+00 
9.9983082e+00 -2.7002958e-03 0.0000000e+00 
1.0002654e+01 -9.6139247e-03 0.0000000e+00 
1.0003570e+01 -1.0006989e-02 0.0000000e+00 
1.0000062e+01 -9.0114037e-03 0.0000000e+00 
1.0012238e+01 -6.2751658e-03 0.0000000e+00 
1.0005841e+01 -1.0182518e-02 0.0000000e+00 
9.9995203e+00 -1.1489080e-03 0.0000000e+00 
1.0000415e+01 -8.2777673e-03 0.0000000e+00 
9.9974451e+00 -4.8374264e-03 0.0000000e+00 
9.9987917e+00 -2.0227327e-03 0.0000000e+00 
9.9989367e+00 -1.2521815e-03 0.0000000e+00 
1.0007658e+01 -1.0052629e-02 0.0000000e+00 
9.9978552e+00 -7.4788015e-03 0.0000000e+00 
9.9997578e+00 -1.1527368e-03 0.0000000e+00 
1.0015087e+01 4.1359031e-25 0.0000000e+00 
9.9984102e+00 -1.3219822e-03 0.0000000e+00 
1.0014238e+01 -4.7784797e-03 0.0000000e+00 
1.0009948e+01 -9.5906630e-03 0.0000000e+00 
9.9979172e+00 -3.0693989e-03 0.0000000e+00 
9.9981089e+00 -6.5678777e-03 0.0000000e+00 
9.9979191e+00 -4.1551683e-03 0.0000000e+00 
9.9984446e+00 -2.2527881e-03 0.0000000e+00 
9.9978952e+00 -1.4057329e-03 0.0000000e+00 
1.0012179e+01 -8.7326597e-03 0.0000000e+00 
9.9969082e+00 -5.6193522e-03 0.0000000e+00 
9.9973373e+00 -1.5190031e-03 0.0000000e+00 
1.0015916e+01 -2.8716645e-03 0.0000000e+00 
1.0003072e+01 -1.1376932e-02 0.0000000e+00 
1.0000096e+01 -1.0653933e-02 0.0000000e+00 
1.0004233e+01 -1.1857275e-02 0.0000000e+00 
1.0000340e+01 -9.7631281e-03 0.0000000e+00 
9.9974575e+00 -3.5168650e-03 0.0000000e+00 
9.9980364e+00 -2.5347027e-03 0.0000000e+00 
1.0006906e+01 -1.2071299e-02 0.0000000e+00 
1.0014531e+01 -7.4411207e-03 0.0000000e+00 
9.9999723e+00 -9.8131481e-04 0.0000000e+00 
9.9975023e+00 -8.8026477e-03 0.0000000e+00 
9.9998217e+00 -1.0068779e-03 0.0000000e+00 
9.9975433e+00 -4.8112841e-03 0.0000000e+00 
9.9967079e+00 -1.6636123e-03 0.0000000e+00 
1.0009088e+01 -1.1923299e-02 0.0000000e+00 
9.9975929e+00 -7.7083502e-03 0.0000000e+00 
9.9996042e+00 -1.0487627e-03 0.0000000e+00 
9.9996901e+00 -1.0982672e-03 0.0000000e+00 
1.0017890e+01 -2.4815418e-24 0.0000000e+00 
1.0011804e+01 -1.1377243e-02 0.0000000e+00 
1.0016894e+01 -5.6673917e-03 0.0000000e+00 
9.9975481e+00 -2.8749094e-03 0.0000000e+00 
9.9962645e+00 -6.5567442e-03 0.0000000e+00 
9.9993534e+00 -1.1114333e-03 0.0000000e+00 
9.9969101e+00 -4.0555373e-03 0.0000000e+00 
9.9959822e+00 -1.8417701e-03 0.0000000e+00 
1.0014460e+01 -1.0360223e-02 0.0000000e+00 
1.0000146e+01 -1.2622660e-02 0.0000000e+00 
1.0003556e+01 -1.3486959e-02 0.0000000e+00 
1.0000223e+01 -1.1544112e-02 0.0000000e+00 
9.9971094e+00 -5.5984189e-03 0.0000000e+00 
1.0005026e+01 -1.4069616e-02 0.0000000e+00 
9.9990664e+00 -1.1905908e-03 0.0000000e+00 
9.9990377e+00 -7.6292461e-04 0.0000000e+00 
1.0018916e+01 -3.4053491e-03 0.0000000e+00 
9.9971008e+00 -1.0391143e-02 0.0000000e+00 
9.9985552e+00 -6.8413891e-04 0.0000000e+00 
1.0008169e+01 -1.4326280e-02 0.0000000e+00 
9.9969606e+00 -3.2815072e-03 0.0000000e+00 
9.9951382e+00 -2.0563402e-03 0.0000000e+00 
9.9969482e+00 -9.0774549e-03 0.0000000e+00 
1.0017253e+01 -8.8272812e-03 0.0000000e+00 
9.9981642e+00 -6.9162995e-04 0.0000000e+00 
9.9962559e+00 -4.7013545e-03 0.0000000e+00 
1.0010789e+01 -1.4153682e-02 0.0000000e+00 
9.9987364e+00 -1.2883417e-03 0.0000000e+00 
9.9954920e+00 -7.6797209e-03 0.0000000e+00 
9.9977303e+00 -7.1981509e-04 0.0000000e+00 
1.0001758e+01 -3.3820741e-04 0.0000000e+00 
1.0021212e+01 -2.4815418e-24 0.0000000e+00 
1.0014009e+01 -1.3504206e-02 0.0000000e+00 
1.0020045e+01 -6.7229550e-03 0.0000000e+00 
9.9941492e+00 -2.3109578e-03 0.0000000e+00 
9.9966078e+00 -6.5415502e-03 0.0000000e+00 
9.9972773e+00 -7.6042407e-04 0.0000000e+00 
9.9962463e+00 -3.7645877e-03 0.0000000e+00 
9.9983540e+00 -1.4053464e-03 0.0000000e+00 
1.0000219e+01 -1.4981487e-02 0.0000000e+00 
1.0000052e+01 -1.3679216e-02 0.0000000e+00 
1.0004123e+01 -1.6011026e-02 0.0000000e+00 
9.9966440e+00 -1.2297068e-02 0.0000000e+00 
1.0002169e+01 -5.3790887e-04 0.0000000e+00 
1.0017170e+01 -1.2295128e-02 0.0000000e+00 
1.0005977e+01 -1.6712997e-02 0.0000000e+00 
9.9954672e+00 -5.4740743e-03 0.0000000e+00 
9.9961462e+00 -1.0721103e-02 0.0000000e+00 
9.9968119e+00 -8.1359921e-04 0.0000000e+00 
1.0002625e+01 -7.0077251e-04 0.0000000e+00 
1.0022476e+01 -4.0383958e-03 0.0000000e+00 
1.0009671e+01 -1.7016111e-02 0.0000000e+00 
9.9945641e+00 -9.0254061e-03 0.0000000e+00 
9.9929848e+00 -2.6102148e-03 0.0000000e+00 
9.9979057e+00 -1.5421640e-03 0.0000000e+00 
1.0003088e+01 -7.8857358e-04 0.0000000e+00 
1.0020485e+01 -1.0472879e-02 0.0000000e+00 
1.0012815e+01 -1.6810156e-02 0.0000000e+00 
9.9953728e+00 -4.3367073e-03 0.0000000e+00 
9.9963322e+00 -8.7966793e-04 0.0000000e+00 
9.9960232e+00 -7.6715704e-03 0.0000000e+00 
1.0003638e+01 -8.7986223e-04 0.0000000e+00 
9.9990683e+00 -5.8802078e-04 0.0000000e+00 
1.0025149e+01 8.2718061e-25 0.0000000e+00 
1.0016634e+01 -1.6033316e-02 0.0000000e+00 
1.0023784e+01 -7.9744617e-03 0.0000000e+00 
9.9945135e+00 -6.3981898e-03 0.0000000e+00 
9.9998159e+00 -1.6239038e-02 0.0000000e+00 
9.9973764e+00 -1.6995963e-03 0.0000000e+00 
1.0000327e+01 -1.7807061e-02 0.0000000e+00 
1.0004319e+01 -1.0008489e-03 0.0000000e+00 
9.9961281e+00 -1.4584462e-02 0.0000000e+00 
9.9916096e+00 -2.9599264e-03 0.0000000e+00 
1.0004789e+01 -1.9029073e-02 0.0000000e+00 
9.9958391e+00 -9.5893111e-04 0.0000000e+00 
9.9984713e+00 -6.1203312e-04 0.0000000e+00 
9.9951525e+00 -1.2695371e-02 0.0000000e+00 
9.9974947e+00 -5.8329367e-04 0.0000000e+00 
1.0020391e+01 -1.4592227e-02 0.0000000e+00 
1.0007120e+01 -1.9869242e-02 0.0000000e+00 
9.9934502e+00 -1.0639553e-02 0.0000000e+00 
9.9942999e+00 -5.0135171e-03 0.0000000e+00 
9.9965487e+00 -6.2701583e-04 0.0000000e+00 
1.0005166e+01 -1.1514047e-03 0.0000000e+00 
1.0011464e+01 -2.0221777e-02 0.0000000e+00 
1.0026701e+01 -4.7880644e-03 0.0000000e+00 
9.9953403e+00 -9.0266941e-03 0.0000000e+00 
9.9956465e+00 -7.4328645e-04 0.0000000e+00 
9.9967480e+00 -1.8788840e-03 0.0000000e+00 
9.9953375e+00 -1.0518124e-03 0.0000000e+00 
1.0024323e+01 -1.2423459e-02 0.0000000e+00 
1.0015236e+01 -1.9970600e-02 0.0000000e+00 
9.9899817e+00 -3.3675137e-03 0.0000000e+00 
9.9933567e+00 -7.5040907e-03 0.0000000e+00 
1.0006213e+01 -1.3343412e-03 0.0000000e+00 
9.9946938e+00 -8.8905555e-04 0.0000000e+00 
9.9997053e+00 6.0859718e-05 0.0000000e+00 
1.0029817e+01 8.2718061e-25 0.0000000e+00 
9.9995003e+00 -1.9308636e-02 0.0000000e+00 
9.9955482e+00 -1.7330928e-02 0.0000000e+00 
1.0019759e+01 -1.9036639e-02 0.0000000e+00 
1.0000485e+01 -2.1191103e-02 0.0000000e+00 
9.9939270e+00 -1.5068688e-02 0.0000000e+00 
1.0028218e+01 -9.4557647e-03 0.0000000e+00 
9.9929781e+00 -5.8145984e-03 0.0000000e+00 
9.9936419e+00 -1.0688443e-03 0.0000000e+00 
9.9988422e+00 1.2986899e-04 0.0000000e+00 
1.0005578e+01 -2.2636205e-02 0.0000000e+00 
9.9948330e+00 -1.1589756e-03 0.0000000e+00 
9.9921122e+00 -1.2578541e-02 0.0000000e+00 
9.9959984e+00 -2.0819430e-03 0.0000000e+00 
1.0007500e+01 -1.5536391e-03 0.0000000e+00 
9.9982777e+00 1.4075065e-04 0.0000000e+00 
1.0008500e+01 -2.3635110e-02 0.0000000e+00 
1.0024224e+01 -1.7315188e-02 0.0000000e+00 
9.9945402e+00 -1.0654207e-02 0.0000000e+00 
9.9975700e+00 1.4837855e-04 0.0000000e+00 
9.9880505e+00 -3.8425389e-03 0.0000000e+00 
9.9924612e+00 -1.2884965e-03 0.0000000e+00 
1.0013606e+01 -2.4038455e-02 0.0000000e+00 
1.0031711e+01 -5.6742169e-03 0.0000000e+00 
9.9919510e+00 -8.8295247e-03 0.0000000e+00 
9.9966469e+00 1.6553563e-04 0.0000000e+00 
9.9943333e+00 -1.2814698e-03 0.0000000e+00 
1.0009070e+01 -1.8140638e-03 0.0000000e+00 
1.0028882e+01 -1.4731602e-02 0.0000000e+00 
1.0018128e+01 -2.3725990e-02 0.0000000e+00 
9.9913454e+00 -6.7645512e-03 0.0000000e+00 
9.9951010e+00 -2.3117112e-03 0.0000000e+00 
9.9911242e+00 -1.5547373e-03 0.0000000e+00 
9.9954805e+00 1.8894329e-04 0.0000000e+00 
9.9949026e+00 -2.0630362e-02 0.0000000e+00 
9.9990931e+00 -2.2990299e-02 0.0000000e+00 
9.9924231e+00 -1.7924478e-02 0.0000000e+00 
1.0000712e+01 -2.5243131e-02 0.0000000e+00 
9.9987431e+00 6.7241042e-04 0.0000000e+00 
9.9905081e+00 -1.4911841e-02 0.0000000e+00 
1.0023483e+01 -2.2597870e-02 0.0000000e+00 
9.9991503e+00 5.9709459e-04 0.0000000e+00 
1.0035347e+01 8.2718061e-25 0.0000000e+00 
9.9980841e+00 6.9178198e-04 0.0000000e+00 
1.0006520e+01 -2.6945248e-02 0.0000000e+00 
9.9857578e+00 -4.3974458e-03 0.0000000e+00 
1.0033478e+01 -1.1205756e-02 0.0000000e+00 
9.9935999e+00 -1.2612650e-02 0.0000000e+00 
9.9940262e+00 2.1804315e-04 0.0000000e+00 
1.0010975e+01 -2.1210804e-03 0.0000000e+00 
9.9974403e+00 7.6774217e-04 0.0000000e+00 
9.9938517e+00 -1.4209426e-03 0.0000000e+00 
9.9896078e+00 -1.8752234e-03 0.0000000e+00 
1.0010173e+01 -2.8124619e-02 0.0000000e+00 
9.9902411e+00 -1.0421437e-02 0.0000000e+00 
1.0028784e+01 -2.0537505e-02 0.0000000e+00 
9.9968081e+00 8.9417800e-04 0.0000000e+00 
9.9940252e+00 -2.5726629e-03 0.0000000e+00 
1.0016172e+01 -2.8577574e-02 0.0000000e+00 
9.9922209e+00 2.5336264e-04 0.0000000e+00 
9.9893284e+00 -7.8944126e-03 0.0000000e+00 
1.0037648e+01 -6.7195599e-03 0.0000000e+00 
9.9961538e+00 1.0499551e-03 0.0000000e+00 
1.0013271e+01 -2.4808582e-03 0.0000000e+00 
9.9878845e+00 -2.2585730e-03 0.0000000e+00 
1.0021589e+01 -2.8182130e-02 0.0000000e+00 
1.0034295e+01 -1.7457653e-02 0.0000000e+00 
9.9941902e+00 -2.4596216e-02 0.0000000e+00 
9.9905863e+00 -2.1364328e-02 0.0000000e+00 
9.9830341e+00 -5.0485721e-03 0.0000000e+00 
9.9985781e+00 -2.7406812e-02 0.0000000e+00 
9.9934025e+00 -1.5799595e-03 0.0000000e+00 
9.9954567e+00 1.2411396e-03 0.0000000e+00 
9.9885874e+00 -1.7725013e-02 0.0000000e+00 
9.9899845e+00 2.9581678e-04 0.0000000e+00 