# vtk DataFile Version 4.0
vtk output
ASCII
DATASET UNSTRUCTURED_GRID
POINTS 3806 float
2.0000000e+01 1.0000000e+01 0.0000000e+00 
1.9750000e+01 1.0000000e+01 0.0000000e+00 
2.0000000e+01 9.7500000e+00 0.0000000e+00 
1.9625000e+01 9.7427902e+00 0.0000000e+00 
2.0000000e+01 9.5000000e+00 0.0000000e+00 
1.9500000e+01 1.0000000e+01 0.0000000e+00 
1.9750000e+01 9.5262804e+00 0.0000000e+00 
1.9375000e+01 9.7427902e+00 0.0000000e+00 
1.9500000e+01 9.5262804e+00 0.0000000e+00 
1.9250000e+01 1.0000000e+01 0.0000000e+00 
2.0000000e+01 9.2500000e+00 0.0000000e+00 
1.9645800e+01 9.2998104e+00 0.0000000e+00 
1.9250000e+01 9.5262804e+00 0.0000000e+00 
1.9125000e+01 9.7427902e+00 0.0000000e+00 
1.9375000e+01 9.3097696e+00 0.0000000e+00 
1.9750000e+01 9.0932703e+00 0.0000000e+00 
2.0000000e+01 9.0000000e+00 0.0000000e+00 
1.9000000e+01 1.0000000e+01 0.0000000e+00 
1.9500000e+01 9.0932703e+00 0.0000000e+00 
1.9000000e+01 9.5262804e+00 0.0000000e+00 
1.9125000e+01 9.3097696e+00 0.0000000e+00 
1.8875000e+01 9.7427902e+00 0.0000000e+00 
1.9696400e+01 8.8762598e+00 0.0000000e+00 
1.9250000e+01 9.0932703e+00 0.0000000e+00 
2.0000000e+01 8.7500000e+00 0.0000000e+00 
1.8750000e+01 1.0000000e+01 0.0000000e+00 
1.9375000e+01 8.8767595e+00 0.0000000e+00 
1.8875000e+01 9.3097696e+00 0.0000000e+00 
1.8750000e+01 9.5262804e+00 0.0000000e+00 
1.9000000e+01 9.0932703e+00 0.0000000e+00 
1.9750000e+01 8.6602497e+00 0.0000000e+00 
1.8625000e+01 9.7427902e+00 0.0000000e+00 
1.9125000e+01 8.8767595e+00 0.0000000e+00 
1.9500000e+01 8.6602497e+00 0.0000000e+00 
2.0000000e+01 8.5000000e+00 0.0000000e+00 
1.8500000e+01 1.0000000e+01 0.0000000e+00 
1.9250000e+01 8.6602497e+00 0.0000000e+00 
1.8625000e+01 9.3097696e+00 0.0000000e+00 
1.8750000e+01 9.0932703e+00 0.0000000e+00 
1.8500000e+01 9.5262804e+00 0.0000000e+00 
1.9645800e+01 8.4531202e+00 0.0000000e+00 
1.8875000e+01 8.8767595e+00 0.0000000e+00 
1.8375000e+01 9.7427902e+00 0.0000000e+00 
1.9000000e+01 8.6602497e+00 0.0000000e+00 
1.9375000e+01 8.4437504e+00 0.0000000e+00 
2.0000000e+01 8.2500000e+00 0.0000000e+00 
1.8250000e+01 1.0000000e+01 0.0000000e+00 
1.8500000e+01 9.0932703e+00 0.0000000e+00 
1.8375000e+01 9.3097696e+00 0.0000000e+00 
1.8625000e+01 8.8767595e+00 0.0000000e+00 
1.9125000e+01 8.4437504e+00 0.0000000e+00 
1.9750000e+01 8.2272396e+00 0.0000000e+00 
1.8250000e+01 9.5262804e+00 0.0000000e+00 
1.8750000e+01 8.6602497e+00 0.0000000e+00 
1.9500000e+01 8.2272396e+00 0.0000000e+00 
1.8125000e+01 9.7427902e+00 0.0000000e+00 
1.8875000e+01 8.4437504e+00 0.0000000e+00 
1.9250000e+01 8.2272396e+00 0.0000000e+00 
1.8250000e+01 9.0932703e+00 0.0000000e+00 
1.8375000e+01 8.8767595e+00 0.0000000e+00 
1.8125000e+01 9.3097696e+00 0.0000000e+00 
2.0000000e+01 8.0000000e+00 0.0000000e+00 
1.8000000e+01 1.0000000e+01 0.0000000e+00 
1.8500000e+01 8.6602497e+00 0.0000000e+00 
1.9625000e+01 8.0107298e+00 0.0000000e+00 
1.9000000e+01 8.2272396e+00 0.0000000e+00 
1.8000000e+01 9.5262804e+00 0.0000000e+00 
1.8625000e+01 8.4437504e+00 0.0000000e+00 
1.9375000e+01 8.0107298e+00 0.0000000e+00 
1.7875000e+01 9.7834902e+00 0.0000000e+00 
1.8750000e+01 8.2272396e+00 0.0000000e+00 
1.9125000e+01 8.0107298e+00 0.0000000e+00 
1.8125000e+01 8.8767595e+00 0.0000000e+00 
1.8000000e+01 9.0932703e+00 0.0000000e+00 
1.8250000e+01 8.6602497e+00 0.0000000e+00 
1.9750000e+01 7.7942300e+00 0.0000000e+00 
1.7875000e+01 9.3097696e+00 0.0000000e+00 
2.0000000e+01 7.7500000e+00 0.0000000e+00 
1.7750000e+01 1.0000000e+01 0.0000000e+00 
1.8375000e+01 8.4437504e+00 0.0000000e+00 
1.9500000e+01 7.7942300e+00 0.0000000e+00 
1.8875000e+01 8.0107298e+00 0.0000000e+00 
1.7750000e+01 9.5262804e+00 0.0000000e+00 
1.8500000e+01 8.2272396e+00 0.0000000e+00 
1.9250000e+01 7.7942300e+00 0.0000000e+00 
1.7625000e+01 9.7834902e+00 0.0000000e+00 
1.7875000e+01 8.8767595e+00 0.0000000e+00 
1.8000000e+01 8.6602497e+00 0.0000000e+00 
1.8625000e+01 8.0107298e+00 0.0000000e+00 
1.9000000e+01 7.7942300e+00 0.0000000e+00 
1.7750000e+01 9.0932703e+00 0.0000000e+00 
1.8125000e+01 8.4437504e+00 0.0000000e+00 
1.9645800e+01 7.5647702e+00 0.0000000e+00 
1.7625000e+01 9.3097696e+00 0.0000000e+00 
1.8250000e+01 8.2272396e+00 0.0000000e+00 
2.0000000e+01 7.5000000e+00 0.0000000e+00 
1.7500000e+01 1.0000000e+01 0.0000000e+00 
1.9375000e+01 7.5777202e+00 0.0000000e+00 
1.8750000e+01 7.7942300e+00 0.0000000e+00 
1.7500000e+01 9.5262804e+00 0.0000000e+00 
1.8375000e+01 8.0107298e+00 0.0000000e+00 
1.9125000e+01 7.5777202e+00 0.0000000e+00 
1.7750000e+01 8.6602497e+00 0.0000000e+00 
1.7625000e+01 8.8767595e+00 0.0000000e+00 
1.7875000e+01 8.4437504e+00 0.0000000e+00 
1.7375000e+01 9.7427902e+00 0.0000000e+00 
1.9768499e+01 7.3630099e+00 0.0000000e+00 
1.7500000e+01 9.0932703e+00 0.0000000e+00 
1.8500000e+01 7.7942300e+00 0.0000000e+00 
1.8875000e+01 7.5777202e+00 0.0000000e+00 
1.8000000e+01 8.2272396e+00 0.0000000e+00 
1.9500000e+01 7.3612199e+00 0.0000000e+00 
1.7375000e+01 9.3097696e+00 0.0000000e+00 
1.8125000e+01 8.0107298e+00 0.0000000e+00 
1.9250000e+01 7.3612199e+00 0.0000000e+00 
2.0000000e+01 7.2500000e+00 0.0000000e+00 
1.7250000e+01 1.0000000e+01 0.0000000e+00 
1.8625000e+01 7.5777202e+00 0.0000000e+00 
1.7250000e+01 9.5262804e+00 0.0000000e+00 
1.8250000e+01 7.7942300e+00 0.0000000e+00 
1.9000000e+01 7.3612199e+00 0.0000000e+00 
1.7500000e+01 8.6602497e+00 0.0000000e+00 
1.7625000e+01 8.4437504e+00 0.0000000e+00 
1.7375000e+01 8.8767595e+00 0.0000000e+00 
1.7750000e+01 8.2272396e+00 0.0000000e+00 
1.9696400e+01 7.1390800e+00 0.0000000e+00 
1.7125000e+01 9.7427902e+00 0.0000000e+00 
1.7250000e+01 9.0932703e+00 0.0000000e+00 
1.7875000e+01 8.0107298e+00 0.0000000e+00 
1.8375000e+01 7.5777202e+00 0.0000000e+00 
1.8750000e+01 7.3612199e+00 0.0000000e+00 
1.9375000e+01 7.1447101e+00 0.0000000e+00 
1.7125000e+01 9.3097696e+00 0.0000000e+00 
1.8000000e+01 7.7942300e+00 0.0000000e+00 
1.9125000e+01 7.1447101e+00 0.0000000e+00 
2.0000000e+01 7.0000000e+00 0.0000000e+00 
1.7000000e+01 1.0000000e+01 0.0000000e+00 
1.8500000e+01 7.3612199e+00 0.0000000e+00 
1.7000000e+01 9.5262804e+00 0.0000000e+00 
1.7375000e+01 8.4437504e+00 0.0000000e+00 
1.7250000e+01 8.6602497e+00 0.0000000e+00 
1.8125000e+01 7.5777202e+00 0.0000000e+00 
1.7500000e+01 8.2272396e+00 0.0000000e+00 
1.8875000e+01 7.1447101e+00 0.0000000e+00 
1.9750000e+01 6.9281998e+00 0.0000000e+00 
1.7125000e+01 8.8767595e+00 0.0000000e+00 
1.7625000e+01 8.0107298e+00 0.0000000e+00 
1.9500000e+01 6.9281998e+00 0.0000000e+00 
1.7000000e+01 9.0932703e+00 0.0000000e+00 
1.6875000e+01 9.7427902e+00 0.0000000e+00 
1.7750000e+01 7.7942300e+00 0.0000000e+00 
1.9250000e+01 6.9281998e+00 0.0000000e+00 
1.8250000e+01 7.3612199e+00 0.0000000e+00 
1.8625000e+01 7.1447101e+00 0.0000000e+00 
1.6875000e+01 9.3097696e+00 0.0000000e+00 
1.7875000e+01 7.5777202e+00 0.0000000e+00 
1.9000000e+01 6.9281998e+00 0.0000000e+00 
2.0000000e+01 6.7500000e+00 0.0000000e+00 
1.6750000e+01 1.0000000e+01 0.0000000e+00 
1.7125000e+01 8.4437504e+00 0.0000000e+00 
1.7250000e+01 8.2272396e+00 0.0000000e+00 
1.6750000e+01 9.5262804e+00 0.0000000e+00 
1.8375000e+01 7.1447101e+00 0.0000000e+00 
1.7000000e+01 8.6602497e+00 0.0000000e+00 
1.7375000e+01 8.0107298e+00 0.0000000e+00 
1.9645800e+01 6.7180800e+00 0.0000000e+00 
1.8000000e+01 7.3612199e+00 0.0000000e+00 
1.8750000e+01 6.9281998e+00 0.0000000e+00 
1.6875000e+01 8.8767595e+00 0.0000000e+00 
1.7500000e+01 7.7942300e+00 0.0000000e+00 
1.9375000e+01 6.7117000e+00 0.0000000e+00 
1.6750000e+01 9.0932703e+00 0.0000000e+00 
1.6625000e+01 9.7427902e+00 0.0000000e+00 
1.7625000e+01 7.5777202e+00 0.0000000e+00 
1.9125000e+01 6.7117000e+00 0.0000000e+00 
1.8125000e+01 7.1447101e+00 0.0000000e+00 
1.8500000e+01 6.9281998e+00 0.0000000e+00 
1.6625000e+01 9.3097696e+00 0.0000000e+00 
1.7750000e+01 7.3612199e+00 0.0000000e+00 
1.8875000e+01 6.7117000e+00 0.0000000e+00 
1.7000000e+01 8.2272396e+00 0.0000000e+00 
1.6875000e+01 8.4437504e+00 0.0000000e+00 
1.7125000e+01 8.0107298e+00 0.0000000e+00 
2.0000000e+01 6.5000000e+00 0.0000000e+00 
1.6500000e+01 1.0000000e+01 0.0000000e+00 
1.9750000e+01 6.4951901e+00 0.0000000e+00 
1.6750000e+01 8.6602497e+00 0.0000000e+00 
1.7250000e+01 7.7942300e+00 0.0000000e+00 
1.6500000e+01 9.5262804e+00 0.0000000e+00 
1.8250000e+01 6.9281998e+00 0.0000000e+00 
1.9500000e+01 6.4951901e+00 0.0000000e+00 
1.6625000e+01 8.8767595e+00 0.0000000e+00 
1.7875000e+01 7.1447101e+00 0.0000000e+00 
1.8625000e+01 6.7117000e+00 0.0000000e+00 
1.7375000e+01 7.5777202e+00 0.0000000e+00 
1.9250000e+01 6.4951901e+00 0.0000000e+00 
1.6500000e+01 9.0932703e+00 0.0000000e+00 
1.6375000e+01 9.7427902e+00 0.0000000e+00 
1.7500000e+01 7.3612199e+00 0.0000000e+00 
1.9000000e+01 6.4951901e+00 0.0000000e+00 
1.8000000e+01 6.9281998e+00 0.0000000e+00 
1.8375000e+01 6.7117000e+00 0.0000000e+00 
1.6375000e+01 9.3097696e+00 0.0000000e+00 
1.6750000e+01 8.2272396e+00 0.0000000e+00 
1.6875000e+01 8.0107298e+00 0.0000000e+00 
1.7625000e+01 7.1447101e+00 0.0000000e+00 
1.6625000e+01 8.4437504e+00 0.0000000e+00 
1.8750000e+01 6.4951901e+00 0.0000000e+00 
1.7000000e+01 7.7942300e+00 0.0000000e+00 
1.9625000e+01 6.2786798e+00 0.0000000e+00 
1.6500000e+01 8.6602497e+00 0.0000000e+00 
2.0000000e+01 6.2500000e+00 0.0000000e+00 
1.6250000e+01 1.0000000e+01 0.0000000e+00 
1.7125000e+01 7.5777202e+00 0.0000000e+00 
1.9375000e+01 6.2786798e+00 0.0000000e+00 
1.6250000e+01 9.5262804e+00 0.0000000e+00 
1.8125000e+01 6.7117000e+00 0.0000000e+00 
1.6375000e+01 8.8767595e+00 0.0000000e+00 
1.7750000e+01 6.9281998e+00 0.0000000e+00 
1.7250000e+01 7.3612199e+00 0.0000000e+00 
1.8500000e+01 6.4951901e+00 0.0000000e+00 
1.9125000e+01 6.2786798e+00 0.0000000e+00 
1.6250000e+01 9.0932703e+00 0.0000000e+00 
1.7375000e+01 7.1447101e+00 0.0000000e+00 
1.6125000e+01 9.7427902e+00 0.0000000e+00 
[...]
POINT_DATA 3806
FIELD FieldData 2
VELOCITY 3 3806  float
1.0000478e+01 -5.7902643e-24 0.0000000e+00 
1.0000562e+01 3.7223128e-24 0.0000000e+00 
1.0000470e+01 -7.7965306e-05 0.0000000e+00 
1.0000602e+01 -1.0090783e-04 0.0000000e+00 
1.0000454e+01 -1.5664766e-04 0.0000000e+00 
1.0000661e+01 -2.2747467e-24 0.0000000e+00 
1.0000535e+01 -1.7115551e-04 0.0000000e+00 
1.0000706e+01 -1.1799846e-04 0.0000000e+00 
1.0000630e+01 -1.9878359e-04 0.0000000e+00 
1.0000777e+01 -2.2747467e-24 0.0000000e+00 
1.0000426e+01 -2.2646696e-04 0.0000000e+00 
1.0000545e+01 -2.6369764e-04 0.0000000e+00 
1.0000741e+01 -2.3142505e-04 0.0000000e+00 
1.0000828e+01 -1.3765598e-04 0.0000000e+00 
1.0000650e+01 -3.0725097e-04 0.0000000e+00 
1.0000471e+01 -3.1343859e-04 0.0000000e+00 
1.0000386e+01 -2.9620851e-04 0.0000000e+00 
1.0000912e+01 4.1359031e-24 0.0000000e+00 
1.0000555e+01 -3.6569053e-04 0.0000000e+00 
1.0000870e+01 -2.6995904e-04 0.0000000e+00 
1.0000762e+01 -3.5835014e-04 0.0000000e+00 
1.0000970e+01 -1.6067989e-04 0.0000000e+00 
1.0000442e+01 -3.8819126e-04 0.0000000e+00 
1.0000652e+01 -4.2588089e-04 0.0000000e+00 
1.0000338e+01 -3.5655216e-04 0.0000000e+00 
1.0001069e+01 4.1359031e-24 0.0000000e+00 
1.0000546e+01 -4.7423737e-04 0.0000000e+00 
1.0000894e+01 -4.1820164e-04 0.0000000e+00 
1.0001019e+01 -3.1512484e-04 0.0000000e+00 
1.0000766e+01 -4.9687014e-04 0.0000000e+00 
1.0000374e+01 -4.3420648e-04 0.0000000e+00 
1.0001137e+01 -1.8760496e-04 0.0000000e+00 
1.0000640e+01 -5.5329117e-04 0.0000000e+00 
1.0000440e+01 -5.0549809e-04 0.0000000e+00 
1.0000281e+01 -4.0302167e-04 0.0000000e+00 
1.0001252e+01 4.1359031e-24 0.0000000e+00 
1.0000517e+01 -5.8917678e-04 0.0000000e+00 
1.0001047e+01 -4.8832933e-04 0.0000000e+00 
1.0000897e+01 -5.8007269e-04 0.0000000e+00 
1.0001194e+01 -3.6812015e-04 0.0000000e+00 
1.0000340e+01 -5.1118608e-04 0.0000000e+00 
1.0000750e+01 -6.4564444e-04 0.0000000e+00 
1.0001330e+01 -2.1883546e-04 0.0000000e+00 
1.0000607e+01 -6.8728003e-04 0.0000000e+00 
1.0000401e+01 -6.0684577e-04 0.0000000e+00 
1.0000218e+01 -4.5389129e-04 0.0000000e+00 
1.0001466e+01 1.6543612e-24 0.0000000e+00 
1.0001052e+01 -6.7752838e-04 0.0000000e+00 
1.0001226e+01 -5.7047146e-04 0.0000000e+00 
1.0000878e+01 -7.5392210e-04 0.0000000e+00 
1.0000470e+01 -7.0759788e-04 0.0000000e+00 
1.0000248e+01 -5.2378565e-04 0.0000000e+00 
1.0001399e+01 -4.3026742e-04 0.0000000e+00 
1.0000710e+01 -8.0232037e-04 0.0000000e+00 
1.0000292e+01 -6.0884643e-04 0.0000000e+00 
1.0001558e+01 -2.5456812e-04 0.0000000e+00 
1.0000551e+01 -8.2573609e-04 0.0000000e+00 
1.0000343e+01 -7.0921454e-04 0.0000000e+00 
1.0001231e+01 -7.9175294e-04 0.0000000e+00 
1.0001029e+01 -8.8077108e-04 0.0000000e+00 
1.0001435e+01 -6.6664640e-04 0.0000000e+00 
1.0000149e+01 -4.7382817e-04 0.0000000e+00 
1.0001714e+01 1.6543612e-24 0.0000000e+00 
1.0000833e+01 -9.3712757e-04 0.0000000e+00 
1.0000194e+01 -5.9568865e-04 0.0000000e+00 
1.0000402e+01 -8.2725141e-04 0.0000000e+00 
1.0001638e+01 -5.0479424e-04 0.0000000e+00 
1.0000646e+01 -9.6423144e-04 0.0000000e+00 
1.0000228e+01 -6.9468946e-04 0.0000000e+00 
1.0001831e+01 -2.5060592e-04 0.0000000e+00 
1.0000472e+01 -9.6570852e-04 0.0000000e+00 
1.0000267e+01 -8.0993591e-04 0.0000000e+00 
1.0001204e+01 -1.0292799e-03 0.0000000e+00 
1.0001442e+01 -9.2525769e-04 0.0000000e+00 
1.0000976e+01 -1.0949965e-03 0.0000000e+00 
1.0000104e+01 -5.7394424e-04 0.0000000e+00 
1.0001679e+01 -7.7905052e-04 0.0000000e+00 
1.0000074e+01 -5.0268049e-04 0.0000000e+00 
1.0002007e+01 -9.0989867e-24 0.0000000e+00 
1.0000756e+01 -1.1264839e-03 0.0000000e+00 
1.0000122e+01 -6.6717027e-04 0.0000000e+00 
1.0000313e+01 -9.4520580e-04 0.0000000e+00 
1.0001918e+01 -5.8881647e-04 0.0000000e+00 
1.0000552e+01 -1.1279786e-03 0.0000000e+00 
1.0000144e+01 -7.7705184e-04 0.0000000e+00 
1.0002143e+01 -2.9532707e-04 0.0000000e+00 
1.0001410e+01 -1.2031101e-03 0.0000000e+00 
1.0001142e+01 -1.2798141e-03 0.0000000e+00 
1.0000366e+01 -1.1037843e-03 0.0000000e+00 
1.0000169e+01 -9.0642198e-04 0.0000000e+00 
1.0001687e+01 -1.0814554e-03 0.0000000e+00 
1.0000886e+01 -1.3164808e-03 0.0000000e+00 
1.0000028e+01 -6.1880646e-04 0.0000000e+00 
1.0001966e+01 -9.1103307e-04 0.0000000e+00 
1.0000648e+01 -1.3180494e-03 0.0000000e+00 
1.0000002e+01 -4.9909647e-04 0.0000000e+00 
1.0002351e+01 -7.4446255e-24 0.0000000e+00 
1.0000038e+01 -7.3125621e-04 0.0000000e+00 
1.0000198e+01 -1.0581745e-03 0.0000000e+00 
1.0002242e+01 -6.8602688e-04 0.0000000e+00 
1.0000428e+01 -1.2895762e-03 0.0000000e+00 
1.0000044e+01 -8.5278862e-04 0.0000000e+00 
1.0001336e+01 -1.4961294e-03 0.0000000e+00 
1.0001651e+01 -1.4065012e-03 0.0000000e+00 
1.0001038e+01 -1.5388887e-03 0.0000000e+00 
1.0002499e+01 -4.0973490e-04 0.0000000e+00 
9.9999533e+00 -5.7298475e-04 0.0000000e+00 
1.0001975e+01 -1.2644809e-03 0.0000000e+00 
1.0000232e+01 -1.2360358e-03 0.0000000e+00 
1.0000051e+01 -9.9526066e-04 0.0000000e+00 
1.0000757e+01 -1.5405945e-03 0.0000000e+00 
9.9999437e+00 -6.7574676e-04 0.0000000e+00 
1.0002300e+01 -1.0651149e-03 0.0000000e+00 
1.0000502e+01 -1.5071569e-03 0.0000000e+00 
9.9999342e+00 -7.8767457e-04 0.0000000e+00 
9.9999266e+00 -4.9794733e-04 0.0000000e+00 
1.0002748e+01 -7.4446255e-24 0.0000000e+00 
1.0000059e+01 -1.1622843e-03 0.0000000e+00 
1.0002623e+01 -8.0328167e-04 0.0000000e+00 
1.0000272e+01 -1.4443854e-03 0.0000000e+00 
9.9999228e+00 -9.1895019e-04 0.0000000e+00 
1.0001564e+01 -1.7492294e-03 0.0000000e+00 
1.0001214e+01 -1.7991741e-03 0.0000000e+00 
1.0001931e+01 -1.6444849e-03 0.0000000e+00 
1.0000887e+01 -1.8010841e-03 0.0000000e+00 
9.9998722e+00 -5.8374921e-04 0.0000000e+00 
1.0002924e+01 -4.7856595e-04 0.0000000e+00 
1.0002311e+01 -1.4784578e-03 0.0000000e+00 
1.0000587e+01 -1.7618841e-03 0.0000000e+00 
1.0000069e+01 -1.3579845e-03 0.0000000e+00 
9.9999094e+00 -1.0728902e-03 0.0000000e+00 
9.9998446e+00 -7.1393733e-04 0.0000000e+00 
1.0002691e+01 -1.2452115e-03 0.0000000e+00 
1.0000318e+01 -1.6883567e-03 0.0000000e+00 
9.9998169e+00 -8.3303795e-04 0.0000000e+00 
9.9998541e+00 -4.8049283e-04 0.0000000e+00 
1.0003215e+01 6.6174449e-24 0.0000000e+00 
9.9998941e+00 -1.2532989e-03 0.0000000e+00 
1.0003068e+01 -9.3915098e-04 0.0000000e+00 
1.0001421e+01 -2.1037189e-03 0.0000000e+00 
1.0001830e+01 -2.0453257e-03 0.0000000e+00 
1.0000081e+01 -1.5871916e-03 0.0000000e+00 
1.0001038e+01 -2.1059208e-03 0.0000000e+00 
9.9997845e+00 -9.7218610e-04 0.0000000e+00 
9.9998055e+00 -5.4557796e-04 0.0000000e+00 
1.0002260e+01 -1.9228342e-03 0.0000000e+00 
1.0000688e+01 -2.0600269e-03 0.0000000e+00 
9.9997702e+00 -6.3554331e-04 0.0000000e+00 
1.0002704e+01 -1.7286543e-03 0.0000000e+00 
1.0003421e+01 -5.5958517e-04 0.0000000e+00 
1.0000372e+01 -1.9739617e-03 0.0000000e+00 
9.9997301e+00 -7.4052293e-04 0.0000000e+00 
9.9998760e+00 -1.4646398e-03 0.0000000e+00 
9.9997473e+00 -1.1353678e-03 0.0000000e+00 
1.0003149e+01 -1.4559393e-03 0.0000000e+00 
1.0000094e+01 -1.8555616e-03 0.0000000e+00 
9.9996834e+00 -8.6398947e-04 0.0000000e+00 
9.9997845e+00 -4.4447512e-04 0.0000000e+00 
1.0003759e+01 6.6174449e-24 0.0000000e+00 
1.0001662e+01 -2.4599887e-03 0.0000000e+00 
1.0001215e+01 -2.4625887e-03 0.0000000e+00 
1.0003589e+01 -1.0980227e-03 0.0000000e+00 
9.9997044e+00 -1.3265877e-03 0.0000000e+00 
1.0002141e+01 -2.3916538e-03 0.0000000e+00 
1.0000805e+01 -2.4089203e-03 0.0000000e+00 
9.9997177e+00 -5.4682128e-04 0.0000000e+00 
9.9998541e+00 -1.7121360e-03 0.0000000e+00 
9.9996281e+00 -1.0087605e-03 0.0000000e+00 
1.0002645e+01 -2.2483440e-03 0.0000000e+00 
1.0000436e+01 -2.3082371e-03 0.0000000e+00 
9.9996614e+00 -6.4479199e-04 0.0000000e+00 
1.0003162e+01 -2.0212061e-03 0.0000000e+00 
1.0004003e+01 -6.5426604e-04 0.0000000e+00 
1.0000111e+01 -2.1697169e-03 0.0000000e+00 
9.9996033e+00 -7.5195590e-04 0.0000000e+00 
9.9996538e+00 -1.5505712e-03 0.0000000e+00 
9.9995642e+00 -1.1784321e-03 0.0000000e+00 
1.0003684e+01 -1.7022968e-03 0.0000000e+00 
9.9998293e+00 -2.0019030e-03 0.0000000e+00 
9.9995346e+00 -8.7761803e-04 0.0000000e+00 
1.0001422e+01 -2.8798380e-03 0.0000000e+00 
1.0001945e+01 -2.8767022e-03 0.0000000e+00 
1.0000942e+01 -2.8171418e-03 0.0000000e+00 
9.9997225e+00 -4.1260596e-04 0.0000000e+00 
1.0004397e+01 -1.6543612e-23 0.0000000e+00 
9.9996729e+00 -4.7208977e-04 0.0000000e+00 
1.0002505e+01 -2.7966686e-03 0.0000000e+00 
1.0000510e+01 -2.6994159e-03 0.0000000e+00 
1.0004197e+01 -1.2837386e-03 0.0000000e+00 
9.9994898e+00 -1.3772112e-03 0.0000000e+00 
9.9996138e+00 -5.4867240e-04 0.0000000e+00 
1.0003094e+01 -2.6289546e-03 0.0000000e+00 
9.9995947e+00 -1.8128562e-03 0.0000000e+00 
9.9994545e+00 -1.0249596e-03 0.0000000e+00 
1.0000130e+01 -2.5374086e-03 0.0000000e+00 
9.9995451e+00 -6.3908997e-04 0.0000000e+00 
1.0003699e+01 -2.3632243e-03 0.0000000e+00 
1.0004682e+01 -7.6490937e-04 0.0000000e+00 
9.9998007e+00 -2.3411014e-03 0.0000000e+00 
9.9994659e+00 -7.4554287e-04 0.0000000e+00 
9.9994020e+00 -1.6100209e-03 0.0000000e+00 
9.9993610e+00 -1.1976272e-03 0.0000000e+00 
1.0004310e+01 -1.9902466e-03 0.0000000e+00 
1.0001664e+01 -3.3678948e-03 0.0000000e+00 
1.0001103e+01 -3.2947210e-03 0.0000000e+00 
9.9995251e+00 -2.1199307e-03 0.0000000e+00 
1.0002276e+01 -3.3640459e-03 0.0000000e+00 
9.9993734e+00 -8.7043393e-04 0.0000000e+00 
1.0000597e+01 -3.1571302e-03 0.0000000e+00 
9.9995794e+00 -4.5258383e-04 0.0000000e+00 
1.0002932e+01 -3.2702431e-03 0.0000000e+00 
9.9996643e+00 -3.5267838e-04 0.0000000e+00 
1.0005143e+01 -1.6543612e-23 0.0000000e+00 
1.0000153e+01 -2.9677085e-03 0.0000000e+00 
9.9995050e+00 -5.2798726e-04 0.0000000e+00 
1.0004910e+01 -1.5007844e-03 0.0000000e+00 
9.9992514e+00 -1.3998965e-03 0.0000000e+00 
1.0003619e+01 -3.0739135e-03 0.0000000e+00 
9.9993000e+00 -1.8826277e-03 0.0000000e+00 
9.9997673e+00 -2.7381135e-03 0.0000000e+00 
9.9992657e+00 -1.0168429e-03 0.0000000e+00 
9.9994192e+00 -6.1561674e-04 0.0000000e+00 
1.0004328e+01 -2.7629922e-03 0.0000000e+00 
9.9994450e+00 -2.4793937e-03 0.0000000e+00 
1.0005475e+01 -8.9418876e-04 0.0000000e+00 
9.9993191e+00 -7.1849843e-04 0.0000000e+00 
9.9991236e+00 -1.6367793e-03 0.0000000e+00 
9.9991407e+00 -1.1883912e-03 0.0000000e+00 
1.0001291e+01 -3.8533823e-03 0.0000000e+00 
1.0001947e+01 -3.9387061e-03 0.0000000e+00 
1.0000699e+01 -3.6926449e-03 0.0000000e+00 
1.0005040e+01 -2.3267465e-03 0.0000000e+00 
1.0002664e+01 -3.9339126e-03 0.0000000e+00 
9.9995623e+00 -3.6176675e-04 0.0000000e+00 
1.0000179e+01 -3.4712318e-03 0.0000000e+00 
9.9991808e+00 -2.2017870e-03 0.0000000e+00 
9.9992018e+00 -8.3913811e-04 0.0000000e+00 
9.9994841e+00 -4.2103254e-04 0.0000000e+00 
1.0003430e+01 -3.8238971e-03 0.0000000e+00 
9.9997282e+00 -3.2027531e-03 0.0000000e+00 
9.9996147e+00 -3.0096833e-04 0.0000000e+00 
1.0006015e+01 -1.6543612e-23 0.0000000e+00 
9.9993935e+00 -4.9050525e-04 0.0000000e+00 
1.0005742e+01 -1.7543851e-03 0.0000000e+00 
1.0004234e+01 -3.5940039e-03 0.0000000e+00 
9.9989929e+00 -1.3893297e-03 0.0000000e+00 
9.9993505e+00 -2.9001443e-03 0.0000000e+00 
9.9989738e+00 -1.9141494e-03 0.0000000e+00 
9.9990644e+00 -9.8052295e-04 0.0000000e+00 
9.9992886e+00 -5.7217968e-04 0.0000000e+00 
1.0005062e+01 -3.2301638e-03 0.0000000e+00 
9.9990416e+00 -2.5754122e-03 0.0000000e+00 
9.9991655e+00 -6.6802255e-04 0.0000000e+00 
1.0006403e+01 -1.0452097e-03 0.0000000e+00 
1.0001513e+01 -4.5068273e-03 0.0000000e+00 
1.0000819e+01 -4.3191332e-03 0.0000000e+00 
1.0002279e+01 -4.6062251e-03 0.0000000e+00 
1.0000211e+01 -4.0603983e-03 0.0000000e+00 
9.9988213e+00 -1.6246428e-03 0.0000000e+00 
9.9989052e+00 -1.1461582e-03 0.0000000e+00 
1.0003118e+01 -4.6001831e-03 0.0000000e+00 
1.0005896e+01 -2.7198964e-03 0.0000000e+00 
9.9994822e+00 -3.0902837e-04 0.0000000e+00 
9.9996824e+00 -3.7465068e-03 0.0000000e+00 
9.9993858e+00 -3.7221203e-04 0.0000000e+00 
9.9987993e+00 -2.2388902e-03 0.0000000e+00 
9.9990215e+00 -7.8038487e-04 0.0000000e+00 
1.0004013e+01 -4.4710627e-03 0.0000000e+00 
9.9992409e+00 -3.3926046e-03 0.0000000e+00 
9.9992790e+00 -4.3399303e-04 0.0000000e+00 
9.9995775e+00 -2.2642898e-04 0.0000000e+00 
1.0007033e+01 1.9852335e-23 0.0000000e+00 
1.0004953e+01 -4.2017926e-03 0.0000000e+00 
1.0006715e+01 -2.0506214e-03 0.0000000e+00 
9.9987173e+00 -1.3401554e-03 0.0000000e+00 
9.9988785e+00 -3.0127736e-03 0.0000000e+00 
9.9991541e+00 -5.0649472e-04 0.0000000e+00 
9.9986200e+00 -1.9001744e-03 0.0000000e+00 
9.9988537e+00 -9.1204548e-04 0.0000000e+00 
1.0005921e+01 -3.7759792e-03 0.0000000e+00 
1.0000959e+01 -5.0519970e-03 0.0000000e+00 
1.0001771e+01 -5.2710660e-03 0.0000000e+00 
1.0000248e+01 -4.7497386e-03 0.0000000e+00 
9.9985943e+00 -2.6190677e-03 0.0000000e+00 
1.0002668e+01 -5.3867414e-03 0.0000000e+00 
9.9990082e+00 -5.9152197e-04 0.0000000e+00 
9.9994860e+00 -2.2439826e-04 0.0000000e+00 
1.0007488e+01 -1.2215815e-03 0.0000000e+00 
9.9996290e+00 -4.3828208e-03 0.0000000e+00 
9.9993944e+00 -2.6199617e-04 0.0000000e+00 
1.0003649e+01 -5.3790468e-03 0.0000000e+00 
9.9984989e+00 -1.5673351e-03 0.0000000e+00 
9.9986582e+00 -1.0662699e-03 0.0000000e+00 
9.9991121e+00 -3.9689792e-03 0.0000000e+00 
1.0006894e+01 -3.1791176e-03 0.0000000e+00 
9.9992867e+00 -3.0563434e-04 0.0000000e+00 
9.9983854e+00 -2.2227748e-03 0.0000000e+00 
1.0004695e+01 -5.2273953e-03 0.0000000e+00 
9.9988384e+00 -6.9117278e-04 0.0000000e+00 
9.9986877e+00 -3.5247325e-03 0.0000000e+00 
9.9991627e+00 -3.5664078e-04 0.0000000e+00 
9.9995480e+00 -1.5630886e-04 0.0000000e+00 
1.0008224e+01 1.9852335e-23 0.0000000e+00 
1.0005795e+01 -4.9119121e-03 0.0000000e+00 
1.0007853e+01 -2.3965619e-03 0.0000000e+00 
9.9984283e+00 -1.2468896e-03 0.0000000e+00 
9.9983559e+00 -3.0641358e-03 0.0000000e+00 
9.9990187e+00 -4.1640448e-04 0.0000000e+00 
9.9982424e+00 -1.8333500e-03 0.0000000e+00 
9.9986391e+00 -8.0791744e-04 0.0000000e+00 
1.0001124e+01 -5.9092399e-03 0.0000000e+00 
1.0000292e+01 -5.5562505e-03 0.0000000e+00 
1.0002074e+01 -6.1647962e-03 0.0000000e+00 
9.9995670e+00 -5.1274342e-03 0.0000000e+00 
9.9994221e+00 -1.6544656e-04 0.0000000e+00 
1.0006926e+01 -4.4135149e-03 0.0000000e+00 
1.0003123e+01 -6.2992643e-03 0.0000000e+00 
9.9981108e+00 -2.6004745e-03 0.0000000e+00 
9.9989624e+00 -4.6435613e-03 0.0000000e+00 
9.9988489e+00 -4.8643255e-04 0.0000000e+00 
9.9993105e+00 -1.8888265e-04 0.0000000e+00 
1.0008756e+01 -1.4274955e-03 0.0000000e+00 
1.0004270e+01 -6.2893801e-03 0.0000000e+00 
9.9984655e+00 -4.1240151e-03 0.0000000e+00 
9.9981604e+00 -1.4583983e-03 0.0000000e+00 
9.9984064e+00 -9.4465556e-04 0.0000000e+00 
9.9991903e+00 -2.2038278e-04 0.0000000e+00 
1.0008062e+01 -3.7153587e-03 0.0000000e+00 
1.0005494e+01 -6.1111278e-03 0.0000000e+00 
9.9979429e+00 -2.1448280e-03 0.0000000e+00 
9.9986515e+00 -5.6847063e-04 0.0000000e+00 
9.9980764e+00 -3.5851749e-03 0.0000000e+00 
9.9990511e+00 -2.5721657e-04 0.0000000e+00 
9.9995317e+00 -7.9381869e-05 0.0000000e+00 
1.0009616e+01 -1.3234890e-23 0.0000000e+00 
1.0006779e+01 -5.7413867e-03 0.0000000e+00 
1.0009182e+01 -2.8004136e-03 0.0000000e+00 
9.9977894e+00 -3.0426895e-03 0.0000000e+00 
1.0000344e+01 -6.4998162e-03 0.0000000e+00 
9.9981346e+00 -1.1047890e-03 0.0000000e+00 
1.0001319e+01 -6.9119036e-03 0.0000000e+00 
9.9988880e+00 -3.0037898e-04 0.0000000e+00 
9.9994955e+00 -5.9987698e-03 0.0000000e+00 
9.9978466e+00 -1.7060664e-03 0.0000000e+00 
1.0002429e+01 -7.2098519e-03 0.0000000e+00 
9.9984207e+00 -6.6455861e-04 0.0000000e+00 
9.9994469e+00 -7.3176867e-05 0.0000000e+00 
9.9987879e+00 -5.4330933e-03 0.0000000e+00 
9.9993477e+00 -8.4786334e-05 0.0000000e+00 
1.0008101e+01 -5.1579676e-03 0.0000000e+00 
1.0003657e+01 -7.3659671e-03 0.0000000e+00 
9.9982061e+00 -4.8255352e-03 0.0000000e+00 
9.9975929e+00 -2.5095425e-03 0.0000000e+00 
9.9992323e+00 -9.8583732e-05 0.0000000e+00 
9.9986973e+00 -3.5094708e-04 0.0000000e+00 
1.0004997e+01 -7.3531764e-03 0.0000000e+00 
1.0010237e+01 -1.6678135e-03 0.0000000e+00 
9.9977493e+00 -4.1951751e-03 0.0000000e+00 
9.9990988e+00 -1.1500521e-04 0.0000000e+00 
9.9978161e+00 -1.2923077e-03 0.0000000e+00 
9.9981508e+00 -7.7708636e-04 0.0000000e+00 
1.0009428e+01 -4.3413290e-03 0.0000000e+00 
1.0006428e+01 -7.1434784e-03 0.0000000e+00 
9.9974794e+00 -1.9960757e-03 0.0000000e+00 
9.9974136e+00 -3.5604616e-03 0.0000000e+00 
9.9984741e+00 -4.1017908e-04 0.0000000e+00 
9.9989433e+00 -1.3423584e-04 0.0000000e+00 
9.9995251e+00 -1.2940532e-06 0.0000000e+00 
1.0011241e+01 -1.3234890e-23 0.0000000e+00 
1.0000407e+01 -7.6036900e-03 0.0000000e+00 
9.9994116e+00 -7.0183934e-03 0.0000000e+00 
1.0007929e+01 -6.7100036e-03 0.0000000e+00 
1.0001546e+01 -8.0845738e-03 0.0000000e+00 
9.9985838e+00 -6.3571855e-03 0.0000000e+00 
1.0010736e+01 -3.2716936e-03 0.0000000e+00 
9.9971828e+00 -2.9366126e-03 0.0000000e+00 
9.9987612e+00 -1.5675304e-04 0.0000000e+00 
9.9993916e+00 6.7369297e-06 0.0000000e+00 
1.0002847e+01 -8.4317178e-03 0.0000000e+00 
9.9978352e+00 -9.0885576e-04 0.0000000e+00 
9.9979019e+00 -5.6467736e-03 0.0000000e+00 
9.9974442e+00 -1.5118925e-03 0.0000000e+00 
9.9982138e+00 -4.7954867e-04 0.0000000e+00 
9.9992857e+00 7.9955262e-06 0.0000000e+00 
1.0004282e+01 -8.6127007e-03 0.0000000e+00 
1.0009473e+01 -6.0269767e-03 0.0000000e+00 
9.9973669e+00 -4.9093692e-03 0.0000000e+00 
9.9991627e+00 9.3434583e-06 0.0000000e+00 
9.9970503e+00 -2.3356788e-03 0.0000000e+00 
9.9985485e+00 -1.8311558e-04 0.0000000e+00 
1.0005849e+01 -8.5960422e-03 0.0000000e+00 
1.0011967e+01 -1.9481663e-03 0.0000000e+00 
9.9969740e+00 -4.1667446e-03 0.0000000e+00 
9.9990177e+00 1.0961298e-05 0.0000000e+00 
9.9974661e+00 -1.0631531e-03 0.0000000e+00 
9.9979086e+00 -5.6078401e-04 0.0000000e+00 
1.0011024e+01 -5.0717606e-03 0.0000000e+00 
1.0007521e+01 -8.3491169e-03 0.0000000e+00 
9.9967041e+00 -3.4367389e-03 0.0000000e+00 
9.9970083e+00 -1.7690355e-03 0.0000000e+00 
9.9983006e+00 -2.1397785e-04 0.0000000e+00 
9.9988489e+00 1.2887614e-05 0.0000000e+00 
9.9993153e+00 -8.2115494e-03 0.0000000e+00 
1.0000482e+01 -8.8950684e-03 0.0000000e+00 
9.9983473e+00 -7.4388133e-03 0.0000000e+00 
1.0001814e+01 -9.4559714e-03 0.0000000e+00 
9.9994488e+00 8.5463616e-05 0.0000000e+00 
9.9975481e+00 -6.6082245e-03 0.0000000e+00 
1.0009275e+01 -7.8407330e-03 0.0000000e+00 
9.9995308e+00 7.8336401e-05 0.0000000e+00 
1.0013140e+01 -1.3234890e-23 0.0000000e+00 
9.9993496e+00 9.9359735e-05 0.0000000e+00 
1.0003336e+01 -9.8601272e-03 0.0000000e+00 
9.9965477e+00 -2.7333880e-03 0.0000000e+00 
1.0012550e+01 -3.8214189e-03 0.0000000e+00 
9.9969206e+00 -5.7456261e-03 0.0000000e+00 
9.9986515e+00 1.5172399e-05 0.0000000e+00 
9.9975519e+00 -6.5591274e-04 0.0000000e+00 
9.9992352e+00 1.1567044e-04 0.0000000e+00 
9.9970331e+00 -1.2438343e-03 0.0000000e+00 
9.9980097e+00 -2.5010656e-04 0.0000000e+00 
1.0005014e+01 -1.0069583e-02 0.0000000e+00 
9.9964609e+00 -4.8767398e-03 0.0000000e+00 
1.0011078e+01 -7.0409896e-03 0.0000000e+00 
9.9991016e+00 1.3502201e-04 0.0000000e+00 
9.9964991e+00 -2.0701825e-03 0.0000000e+00 
1.0006846e+01 -1.0047764e-02 0.0000000e+00 
9.9984207e+00 1.7875855e-05 0.0000000e+00 
9.9961433e+00 -4.0224842e-03 0.0000000e+00 
1.0013988e+01 -2.2750646e-03 0.0000000e+00 
9.9989471e+00 1.5774886e-04 0.0000000e+00 
9.9971352e+00 -7.6731463e-04 0.0000000e+00 
9.9976692e+00 -2.9240089e-04 0.0000000e+00 
1.0008800e+01 -9.7566955e-03 0.0000000e+00 
1.0012889e+01 -5.9237056e-03 0.0000000e+00 
9.9992046e+00 -9.6077919e-03 0.0000000e+00 
9.9980707e+00 -8.7048989e-03 0.0000000e+00 
9.9959593e+00 -3.1991971e-03 0.0000000e+00 
1.0000571e+01 -1.0405753e-02 0.0000000e+00 
9.9965277e+00 -1.4554245e-03 0.0000000e+00 
9.9987650e+00 1.8441872e-04 0.0000000e+00 
9.9971342e+00 -7.7339238e-03 0.0000000e+00 
9.9981518e+00 2.1069474e-05 0.0000000e+00 