# vtk DataFile Version 4.0
vtk output
ASCII
DATASET UNSTRUCTURED_GRID
POINTS 3806 float
2.0000000e+01 1.0000000e+01 0.0000000e+00 
1.9750000e+01 1.0000000e+01 0.0000000e+00 
2.0000000e+01 9.7500000e+00 0.0000000e+00 
1.9625000e+01 9.7427902e+00 0.0000000e+00 
2.0000000e+01 9.5000000e+00 0.0000000e+00 
1.9500000e+01 1.0000000e+01 0.0000000e+00 
1.9750000e+01 9.5262804e+00 0.0000000e+00 
1.9375000e+01 9.7427902e+00 0.0000000e+00 
1.9500000e+01 9.5262804e+00 0.0000000e+00 
1.9250000e+01 1.0000000e+01 0.0000000e+00 
2.0000000e+01 9.2500000e+00 0.0000000e+00 
1.9645800e+01 9.2998104e+00 0.0000000e+00 
1.9250000e+01 9.5262804e+00 0.0000000e+00 
1.9125000e+01 9.7427902e+00 0.0000000e+00 
1.9375000e+01 9.3097696e+00 0.0000000e+00 
1.9750000e+01 9.0932703e+00 0.0000000e+00 
2.0000000e+01 9.0000000e+00 0.0000000e+00 
1.9000000e+01 1.0000000e+01 0.0000000e+00 
1.9500000e+01 9.0932703e+00 0.0000000e+00 
1.9000000e+01 9.5262804e+00 0.0000000e+00 
1.9125000e+01 9.3097696e+00 0.0000000e+00 
1.8875000e+01 9.7427902e+00 0.0000000e+00 
1.9696400e+01 8.8762598e+00 0.0000000e+00 
1.9250000e+01 9.0932703e+00 0.0000000e+00 
2.0000000e+01 8.7500000e+00 0.0000000e+00 
1.8750000e+01 1.0000000e+01 0.0000000e+00 
1.9375000e+01 8.8767595e+00 0.0000000e+00 
1.8875000e+01 9.3097696e+00 0.0000000e+00 
1.8750000e+01 9.5262804e+00 0.0000000e+00 
1.9000000e+01 9.0932703e+00 0.0000000e+00 
1.9750000e+01 8.6602497e+00 0.0000000e+00 
1.8625000e+01 9.7427902e+00 0.0000000e+00 
1.9125000e+01 8.8767595e+00 0.0000000e+00 
1.9500000e+01 8.6602497e+00 0.0000000e+00 
2.0000000e+01 8.5000000e+00 0.0000000e+00 
1.8500000e+01 1.0000000e+01 0.0000000e+00 
1.9250000e+01 8.6602497e+00 0.0000000e+00 
1.8625000e+01 9.3097696e+00 0.0000000e+00 
1.8750000e+01 9.0932703e+00 0.0000000e+00 
1.8500000e+01 9.5262804e+00 0.0000000e+00 
1.9645800e+01 8.4531202e+00 0.0000000e+00 
1.8875000e+01 8.8767595e+00 0.0000000e+00 
1.8375000e+01 9.7427902e+00 0.0000000e+00 
1.9000000e+01 8.6602497e+00 0.0000000e+00 
1.9375000e+01 8.4437504e+00 0.0000000e+00 
2.0000000e+01 8.2500000e+00 0.0000000e+00 
1.8250000e+01 1.0000000e+01 0.0000000e+00 
1.8500000e+01 9.0932703e+00 0.0000000e+00 
1.8375000e+01 9.3097696e+00 0.0000000e+00 
1.8625000e+01 8.8767595e+00 0.0000000e+00 
1.9125000e+01 8.4437504e+00 0.0000000e+00 
1.9750000e+01 8.2272396e+00 0.0000000e+00 
1.8250000e+01 9.5262804e+00 0.0000000e+00 
1.8750000e+01 8.6602497e+00 0.0000000e+00 
1.9500000e+01 8.2272396e+00 0.0000000e+00 
1.8125000e+01 9.7427902e+00 0.0000000e+00 
1.8875000e+01 8.4437504e+00 0.0000000e+00 
1.9250000e+01 8.2272396e+00 0.0000000e+00 
1.8250000e+01 9.0932703e+00 0.0000000e+00 
1.8375000e+01 8.8767595e+00 0.0000000e+00 
1.8125000e+01 9.3097696e+00 0.0000000e+00 
2.0000000e+01 8.0000000e+00 0.0000000e+00 
1.8000000e+01 1.0000000e+01 0.0000000e+00 
1.8500000e+01 8.6602497e+00 0.0000000e+00 
1.9625000e+01 8.0107298e+00 0.0000000e+00 
1.9000000e+01 8.2272396e+00 0.0000000e+00 
1.8000000e+01 9.5262804e+00 0.0000000e+00 
1.8625000e+01 8.4437504e+00 0.0000000e+00 
1.9375000e+01 8.0107298e+00 0.0000000e+00 
1.7875000e+01 9.7834902e+00 0.0000000e+00 
1.8750000e+01 8.2272396e+00 0.0000000e+00 
1.9125000e+01 8.0107298e+00 0.0000000e+00 
1.8125000e+01 8.8767595e+00 0.0000000e+00 
1.8000000e+01 9.0932703e+00 0.0000000e+00 
1.8250000e+01 8.6602497e+00 0.0000000e+00 
1.9750000e+01 7.7942300e+00 0.0000000e+00 
1.7875000e+01 9.3097696e+00 0.0000000e+00 
2.0000000e+01 7.7500000e+00 0.0000000e+00 
1.7750000e+01 1.0000000e+01 0.0000000e+00 
1.8375000e+01 8.4437504e+00 0.0000000e+00 
1.9500000e+01 7.7942300e+00 0.0000000e+00 
1.8875000e+01 8.0107298e+00 0.0000000e+00 
1.7750000e+01 9.5262804e+00 0.0000000e+00 
1.8500000e+01 8.2272396e+00 0.0000000e+00 
1.9250000e+01 7.7942300e+00 0.0000000e+00 
1.7625000e+01 9.7834902e+00 0.0000000e+00 
1.7875000e+01 8.8767595e+00 0.0000000e+00 
1.8000000e+01 8.6602497e+00 0.0000000e+00 
1.8625000e+01 8.0107298e+00 0.0000000e+00 
1.9000000e+01 7.7942300e+00 0.0000000e+00 
1.7750000e+01 9.0932703e+00 0.0000000e+00 
1.8125000e+01 8.4437504e+00 0.0000000e+00 
1.9645800e+01 7.5647702e+00 0.0000000e+00 
1.7625000e+01 9.3097696e+00 0.0000000e+00 
1.8250000e+01 8.2272396e+00 0.0000000e+00 
2.0000000e+01 7.5000000e+00 0.0000000e+00 
1.7500000e+01 1.0000000e+01 0.0000000e+00 
1.9375000e+01 7.5777202e+00 0.0000000e+00 
1.8750000e+01 7.7942300e+00 0.0000000e+00 
1.7500000e+01 9.5262804e+00 0.0000000e+00 
1.8375000e+01 8.0107298e+00 0.0000000e+00 
1.9125000e+01 7.5777202e+00 0.0000000e+00 
1.7750000e+01 8.6602497e+00 0.0000000e+00 
1.7625000e+01 8.8767595e+00 0.0000000e+00 
1.7875000e+01 8.4437504e+00 0.0000000e+00 
1.7375000e+01 9.7427902e+00 0.0000000e+00 
1.9768499e+01 7.3630099e+00 0.0000000e+00 
1.7500000e+01 9.0932703e+00 0.0000000e+00 
1.8500000e+01 7.7942300e+00 0.0000000e+00 
1.8875000e+01 7.5777202e+00 0.0000000e+00 
1.8000000e+01 8.2272396e+00 0.0000000e+00 
1.9500000e+01 7.3612199e+00 0.0000000e+00 
1.7375000e+01 9.3097696e+00 0.0000000e+00 
1.8125000e+01 8.0107298e+00 0.0000000e+00 
1.9250000e+01 7.3612199e+00 0.0000000e+00 
2.0000000e+01 7.2500000e+00 0.0000000e+00 
1.7250000e+01 1.0000000e+01 0.0000000e+00 
1.8625000e+01 7.5777202e+00 0.0000000e+00 
1.7250000e+01 9.5262804e+00 0.0000000e+00 
1.8250000e+01 7.7942300e+00 0.0000000e+00 
1.9000000e+01 7.3612199e+00 0.0000000e+00 
1.7500000e+01 8.6602497e+00 0.0000000e+00 
1.7625000e+01 8.4437504e+00 0.0000000e+00 
1.7375000e+01 8.8767595e+00 0.0000000e+00 
1.7750000e+01 8.2272396e+00 0.0000000e+00 
1.9696400e+01 7.1390800e+00 0.0000000e+00 
1.7125000e+01 9.7427902e+00 0.0000000e+00 
1.7250000e+01 9.0932703e+00 0.0000000e+00 
1.7875000e+01 8.0107298e+00 0.0000000e+00 
1.8375000e+01 7.5777202e+00 0.0000000e+00 
1.8750000e+01 7.3612199e+00 0.0000000e+00 
1.9375000e+01 7.1447101e+00 0.0000000e+00 
1.7125000e+01 9.3097696e+00 0.0000000e+00 
1.8000000e+01 7.7942300e+00 0.0000000e+00 
1.9125000e+01 7.1447101e+00 0.0000000e+00 
2.0000000e+01 7.0000000e+00 0.0000000e+00 
1.7000000e+01 1.0000000e+01 0.0000000e+00 
1.8500000e+01 7.3612199e+00 0.0000000e+00 
1.7000000e+01 9.5262804e+00 0.0000000e+00 
1.7375000e+01 8.4437504e+00 0.0000000e+00 
1.7250000e+01 8.6602497e+00 0.0000000e+00 
1.8125000e+01 7.5777202e+00 0.0000000e+00 
1.7500000e+01 8.2272396e+00 0.0000000e+00 
1.8875000e+01 7.1447101e+00 0.0000000e+00 
1.9750000e+01 6.9281998e+00 0.0000000e+00 
1.7125000e+01 8.8767595e+00 0.0000000e+00 
1.7625000e+01 8.0107298e+00 0.0000000e+00 
1.9500000e+01 6.9281998e+00 0.0000000e+00 
1.7000000e+01 9.0932703e+00 0.0000000e+00 
1.6875000e+01 9.7427902e+00 0.0000000e+00 
1.7750000e+01 7.7942300e+00 0.0000000e+00 
1.9250000e+01 6.9281998e+00 0.0000000e+00 
1.8250000e+01 7.3612199e+00 0.0000000e+00 
1.8625000e+01 7.1447101e+00 0.0000000e+00 
1.6875000e+01 9.3097696e+00 0.0000000e+00 
1.7875000e+01 7.5777202e+00 0.0000000e+00 
1.9000000e+01 6.9281998e+00 0.0000000e+00 
2.0000000e+01 6.7500000e+00 0.0000000e+00 
1.6750000e+01 1.0000000e+01 0.0000000e+00 
1.7125000e+01 8.4437504e+00 0.0000000e+00 
1.7250000e+01 8.2272396e+00 0.0000000e+00 
1.6750000e+01 9.5262804e+00 0.0000000e+00 
1.8375000e+01 7.1447101e+00 0.0000000e+00 
1.7000000e+01 8.6602497e+00 0.0000000e+00 
1.7375000e+01 8.0107298e+00 0.0000000e+00 
1.9645800e+01 6.7180800e+00 0.0000000e+00 
1.8000000e+01 7.3612199e+00 0.0000000e+00 
1.8750000e+01 6.9281998e+00 0.0000000e+00 
1.6875000e+01 8.8767595e+00 0.0000000e+00 
1.7500000e+01 7.7942300e+00 0.0000000e+00 
1.9375000e+01 6.7117000e+00 0.0000000e+00 
1.6750000e+01 9.0932703e+00 0.0000000e+00 
1.6625000e+01 9.7427902e+00 0.0000000e+00 
1.7625000e+01 7.5777202e+00 0.0000000e+00 
1.9125000e+01 6.7117000e+00 0.0000000e+00 
1.8125000e+01 7.1447101e+00 0.0000000e+00 
1.8500000e+01 6.9281998e+00 0.0000000e+00 
1.6625000e+01 9.3097696e+00 0.0000000e+00 
1.7750000e+01 7.3612199e+00 0.0000000e+00 
1.8875000e+01 6.7117000e+00 0.0000000e+00 
1.7000000e+01 8.2272396e+00 0.0000000e+00 
1.6875000e+01 8.4437504e+00 0.0000000e+00 
1.7125000e+01 8.0107298e+00 0.0000000e+00 
2.0000000e+01 6.5000000e+00 0.0000000e+00 
1.6500000e+01 1.0000000e+01 0.0000000e+00 
1.9750000e+01 6.4951901e+00 0.0000000e+00 
1.6750000e+01 8.6602497e+00 0.0000000e+00 
1.7250000e+01 7.7942300e+00 0.0000000e+00 
1.6500000e+01 9.5262804e+00 0.0000000e+00 
1.8250000e+01 6.9281998e+00 0.0000000e+00 
1.9500000e+01 6.4951901e+00 0.0000000e+00 
1.6625000e+01 8.8767595e+00 0.0000000e+00 
1.7875000e+01 7.1447101e+00 0.0000000e+00 
1.8625000e+01 6.7117000e+00 0.0000000e+00 
1.7375000e+01 7.5777202e+00 0.0000000e+00 
1.9250000e+01 6.4951901e+00 0.0000000e+00 
1.6500000e+01 9.0932703e+00 0.0000000e+00 
1.6375000e+01 9.7427902e+00 0.0000000e+00 
1.7500000e+01 7.3612199e+00 0.0000000e+00 
1.9000000e+01 6.4951901e+00 0.0000000e+00 
1.8000000e+01 6.9281998e+00 0.0000000e+00 
1.8375000e+01 6.7117000e+00 0.0000000e+00 
1.6375000e+01 9.3097696e+00 0.0000000e+00 
1.6750000e+01 8.2272396e+00 0.0000000e+00 
1.6875000e+01 8.0107298e+00 0.0000000e+00 
1.7625000e+01 7.1447101e+00 0.0000000e+00 
1.6625000e+01 8.4437504e+00 0.0000000e+00 
1.8750000e+01 6.4951901e+00 0.0000000e+00 
1.7000000e+01 7.7942300e+00 0.0000000e+00 
1.9625000e+01 6.2786798e+00 0.0000000e+00 
1.6500000e+01 8.6602497e+00 0.0000000e+00 
2.0000000e+01 6.2500000e+00 0.0000000e+00 
1.6250000e+01 1.0000000e+01 0.0000000e+00 
1.7125000e+01 7.5777202e+00 0.0000000e+00 
1.9375000e+01 6.2786798e+00 0.0000000e+00 
1.6250000e+01 9.5262804e+00 0.0000000e+00 
1.8125000e+01 6.7117000e+00 0.0000000e+00 
1.6375000e+01 8.8767595e+00 0.0000000e+00 
1.7750000e+01 6.9281998e+00 0.0000000e+00 
1.7250000e+01 7.3612199e+00 0.0000000e+00 
1.8500000e+01 6.4951901e+00 0.0000000e+00 
1.9125000e+01 6.2786798e+00 0.0000000e+00 
1.6250000e+01 9.0932703e+00 0.0000000e+00 
1.7375000e+01 7.1447101e+00 0.0000000e+00 
1.6125000e+01 9.7427902e+00 0.0000000e+00 
[...]
POINT_DATA 3806
FIELD FieldData 2
VELOCITY 3 3806  float
1.0000516e+01 1.1632227e-25 0.0000000e+00 
1.0000801e+01 9.8227698e-25 0.0000000e+00 
1.0000476e+01 -2.7640816e-04 0.0000000e+00 
1.0000907e+01 -3.1328431e-04 0.0000000e+00 
1.0000480e+01 -5.5028382e-04 0.0000000e+00 
1.0001109e+01 4.1359031e-25 0.0000000e+00 
1.0000751e+01 -5.5111764e-04 0.0000000e+00 
1.0001220e+01 -3.4320180e-04 0.0000000e+00 
1.0001046e+01 -5.9589109e-04 0.0000000e+00 
1.0001448e+01 4.1359031e-25 0.0000000e+00 
1.0000437e+01 -8.0115785e-04 0.0000000e+00 
1.0000817e+01 -8.2270498e-04 0.0000000e+00 
1.0001369e+01 -6.5547088e-04 0.0000000e+00 
1.0001564e+01 -3.8081763e-04 0.0000000e+00 
1.0001132e+01 -8.9410564e-04 0.0000000e+00 
1.0000650e+01 -1.0109943e-03 0.0000000e+00 
1.0000395e+01 -1.0440082e-03 0.0000000e+00 
1.0001822e+01 -9.3057819e-25 0.0000000e+00 
1.0000909e+01 -1.0968795e-03 0.0000000e+00 
1.0001725e+01 -7.3181419e-04 0.0000000e+00 
1.0001450e+01 -9.9187880e-04 0.0000000e+00 
1.0001948e+01 -4.2780492e-04 0.0000000e+00 
1.0000632e+01 -1.2320116e-03 0.0000000e+00 
1.0001191e+01 -1.2063331e-03 0.0000000e+00 
1.0000337e+01 -1.2564936e-03 0.0000000e+00 
1.0002242e+01 -9.3057819e-25 0.0000000e+00 
1.0000943e+01 -1.3791113e-03 0.0000000e+00 
1.0001805e+01 -1.1140817e-03 0.0000000e+00 
1.0002125e+01 -8.2637015e-04 0.0000000e+00 
1.0001504e+01 -1.3468495e-03 0.0000000e+00 
1.0000503e+01 -1.3990832e-03 0.0000000e+00 
1.0002383e+01 -4.8527509e-04 0.0000000e+00 
1.0001210e+01 -1.5305344e-03 0.0000000e+00 
1.0000707e+01 -1.5155871e-03 0.0000000e+00 
1.0000277e+01 -1.4277298e-03 0.0000000e+00 
1.0002719e+01 -9.3057819e-25 0.0000000e+00 
1.0000929e+01 -1.6676432e-03 0.0000000e+00 
1.0002207e+01 -1.2640371e-03 0.0000000e+00 
1.0001855e+01 -1.5209168e-03 0.0000000e+00 
1.0002579e+01 -9.4177364e-04 0.0000000e+00 
1.0000493e+01 -1.5949936e-03 0.0000000e+00 
1.0001509e+01 -1.7188780e-03 0.0000000e+00 
1.0002879e+01 -5.5432372e-04 0.0000000e+00 
1.0001175e+01 -1.8615993e-03 0.0000000e+00 
1.0000682e+01 -1.7638069e-03 0.0000000e+00 
1.0000193e+01 -1.5899267e-03 0.0000000e+00 
1.0003263e+01 -1.8611564e-24 0.0000000e+00 
1.0002253e+01 -1.7328558e-03 0.0000000e+00 
1.0002665e+01 -1.4454754e-03 0.0000000e+00 
1.0001846e+01 -1.9500926e-03 0.0000000e+00 
1.0000879e+01 -1.9560740e-03 0.0000000e+00 
1.0000312e+01 -1.6863750e-03 0.0000000e+00 
1.0003098e+01 -1.0809101e-03 0.0000000e+00 
1.0001451e+01 -2.1019259e-03 0.0000000e+00 
1.0000444e+01 -1.8227900e-03 0.0000000e+00 
1.0003448e+01 -6.3550757e-04 0.0000000e+00 
1.0001100e+01 -2.1966365e-03 0.0000000e+00 
1.0000588e+01 -2.0050926e-03 0.0000000e+00 
1.0002707e+01 -1.9882834e-03 0.0000000e+00 
1.0002230e+01 -2.2299897e-03 0.0000000e+00 
1.0003189e+01 -1.6630782e-03 0.0000000e+00 
1.0000132e+01 -1.6804627e-03 0.0000000e+00 
1.0003885e+01 -1.8611564e-24 0.0000000e+00 
1.0001764e+01 -2.3946653e-03 0.0000000e+00 
1.0000277e+01 -1.8451508e-03 0.0000000e+00 
1.0000749e+01 -2.2379293e-03 0.0000000e+00 
1.0003696e+01 -1.2504432e-03 0.0000000e+00 
1.0001348e+01 -2.4919384e-03 0.0000000e+00 
1.0000381e+01 -2.0180542e-03 0.0000000e+00 
1.0004122e+01 -6.2083051e-04 0.0000000e+00 
1.0000928e+01 -2.5265140e-03 0.0000000e+00 
1.0000494e+01 -2.2371353e-03 0.0000000e+00 
1.0002670e+01 -2.5655332e-03 0.0000000e+00 
1.0003231e+01 -2.2929399e-03 0.0000000e+00 
1.0002123e+01 -2.7471345e-03 0.0000000e+00 
1.0000087e+01 -1.8432192e-03 0.0000000e+00 
1.0003794e+01 -1.9217212e-03 0.0000000e+00 
1.0000024e+01 -1.7581215e-03 0.0000000e+00 
1.0004619e+01 -1.3441685e-24 0.0000000e+00 
1.0001630e+01 -2.8493891e-03 0.0000000e+00 
1.0000133e+01 -1.9940746e-03 0.0000000e+00 
1.0000622e+01 -2.5120503e-03 0.0000000e+00 
1.0004384e+01 -1.4443008e-03 0.0000000e+00 
1.0001132e+01 -2.8780620e-03 0.0000000e+00 
1.0000185e+01 -2.1937350e-03 0.0000000e+00 
1.0004883e+01 -7.2535250e-04 0.0000000e+00 
1.0003178e+01 -2.9652815e-03 0.0000000e+00 
1.0002535e+01 -3.1682418e-03 0.0000000e+00 
1.0000765e+01 -2.8495414e-03 0.0000000e+00 
1.0000243e+01 -2.4481129e-03 0.0000000e+00 
1.0003836e+01 -2.6549788e-03 0.0000000e+00 
1.0001953e+01 -3.2779796e-03 0.0000000e+00 
1.0000028e+01 -1.9287869e-03 0.0000000e+00 
1.0004498e+01 -2.2298396e-03 0.0000000e+00 
1.0001364e+01 -3.3014007e-03 0.0000000e+00 
9.9999676e+00 -1.7705952e-03 0.0000000e+00 
1.0005466e+01 -1.2407709e-24 0.0000000e+00 
1.0000060e+01 -2.1212001e-03 0.0000000e+00 
1.0000309e+01 -2.7634178e-03 0.0000000e+00 
1.0005180e+01 -1.6726331e-03 0.0000000e+00 
1.0000929e+01 -3.2580546e-03 0.0000000e+00 
1.0000085e+01 -2.3515653e-03 0.0000000e+00 
1.0003010e+01 -3.6686226e-03 0.0000000e+00 
1.0003766e+01 -3.4392155e-03 0.0000000e+00 
1.0002327e+01 -3.7884850e-03 0.0000000e+00 
1.0005743e+01 -9.9705392e-04 0.0000000e+00 
9.9998493e+00 -1.8540996e-03 0.0000000e+00 
1.0004537e+01 -3.0841359e-03 0.0000000e+00 
1.0000382e+01 -3.1475350e-03 0.0000000e+00 
1.0000113e+01 -2.6403326e-03 0.0000000e+00 
1.0001631e+01 -3.8071712e-03 0.0000000e+00 
9.9998083e+00 -2.0189853e-03 0.0000000e+00 
1.0005312e+01 -2.5936430e-03 0.0000000e+00 
1.0001117e+01 -3.7478402e-03 0.0000000e+00 
9.9997673e+00 -2.2218165e-03 0.0000000e+00 
9.9998560e+00 -1.7425710e-03 0.0000000e+00 
1.0006439e+01 -1.2407709e-24 0.0000000e+00 
1.0000147e+01 -2.9947439e-03 0.0000000e+00 
1.0006112e+01 -1.9510776e-03 0.0000000e+00 
1.0000465e+01 -3.6100843e-03 0.0000000e+00 
9.9997225e+00 -2.4792894e-03 0.0000000e+00 
1.0003562e+01 -4.2608273e-03 0.0000000e+00 
1.0002759e+01 -4.3937732e-03 0.0000000e+00 
1.0004449e+01 -3.9993166e-03 0.0000000e+00 
1.0001940e+01 -4.4080992e-03 0.0000000e+00 
9.9997787e+00 -1.8450107e-03 0.0000000e+00 
1.0006772e+01 -1.1601641e-03 0.0000000e+00 
1.0005351e+01 -3.5901216e-03 0.0000000e+00 
1.0001333e+01 -4.3312060e-03 0.0000000e+00 
1.0000185e+01 -3.4237069e-03 0.0000000e+00 
9.9996691e+00 -2.7984364e-03 0.0000000e+00 
9.9996977e+00 -2.0642499e-03 0.0000000e+00 
1.0006261e+01 -3.0212842e-03 0.0000000e+00 
1.0000561e+01 -4.1626687e-03 0.0000000e+00 
9.9996252e+00 -2.2892223e-03 0.0000000e+00 
9.9997997e+00 -1.6914771e-03 0.0000000e+00 
1.0007574e+01 -6.6174449e-24 0.0000000e+00 
9.9996080e+00 -3.1871975e-03 0.0000000e+00 
1.0007195e+01 -2.2751866e-03 0.0000000e+00 
1.0003260e+01 -5.1091025e-03 0.0000000e+00 
1.0004203e+01 -4.9598501e-03 0.0000000e+00 
1.0000230e+01 -3.9379718e-03 0.0000000e+00 
1.0002296e+01 -5.1193335e-03 0.0000000e+00 
9.9995441e+00 -2.5694855e-03 0.0000000e+00 
9.9996576e+00 -1.7498633e-03 0.0000000e+00 
1.0005243e+01 -4.6597463e-03 0.0000000e+00 
1.0001583e+01 -5.0228294e-03 0.0000000e+00 
9.9995470e+00 -1.8969779e-03 0.0000000e+00 
1.0006301e+01 -4.1862386e-03 0.0000000e+00 
1.0007972e+01 -1.3541480e-03 0.0000000e+00 
1.0000670e+01 -4.8191724e-03 0.0000000e+00 
9.9994259e+00 -2.0852550e-03 0.0000000e+00 
9.9995365e+00 -3.6552907e-03 0.0000000e+00 
9.9994535e+00 -2.9136606e-03 0.0000000e+00 
1.0007367e+01 -3.5251777e-03 0.0000000e+00 
1.0000281e+01 -4.5504305e-03 0.0000000e+00 
9.9992914e+00 -2.3266985e-03 0.0000000e+00 
9.9996939e+00 -1.5664252e-03 0.0000000e+00 
1.0008900e+01 -6.6174449e-24 0.0000000e+00 
1.0003843e+01 -5.9525142e-03 0.0000000e+00 
1.0002712e+01 -5.9588142e-03 0.0000000e+00 
1.0008459e+01 -2.6563907e-03 0.0000000e+00 
9.9993505e+00 -3.3302768e-03 0.0000000e+00 
1.0004951e+01 -5.7832743e-03 0.0000000e+00 
1.0001874e+01 -5.8401390e-03 0.0000000e+00 
9.9994907e+00 -1.6946974e-03 0.0000000e+00 
9.9994535e+00 -4.2144256e-03 0.0000000e+00 
9.9991398e+00 -2.6259013e-03 0.0000000e+00 
1.0006170e+01 -5.4370477e-03 0.0000000e+00 
1.0000796e+01 -5.5961194e-03 0.0000000e+00 
9.9993200e+00 -1.8596899e-03 0.0000000e+00 
1.0007409e+01 -4.8874309e-03 0.0000000e+00 
1.0009374e+01 -1.5817840e-03 0.0000000e+00 
1.0000341e+01 -5.2764560e-03 0.0000000e+00 
9.9991484e+00 -2.0609212e-03 0.0000000e+00 
9.9992323e+00 -3.8297176e-03 0.0000000e+00 
9.9989672e+00 -2.9903054e-03 0.0000000e+00 
1.0008658e+01 -4.1176099e-03 0.0000000e+00 
9.9993572e+00 -4.8786066e-03 0.0000000e+00 
9.9989557e+00 -2.3129466e-03 0.0000000e+00 
1.0003196e+01 -6.9477577e-03 0.0000000e+00 
1.0004524e+01 -6.9453199e-03 0.0000000e+00 
1.0002213e+01 -6.8037645e-03 0.0000000e+00 
9.9996481e+00 -1.4374008e-03 0.0000000e+00 
1.0010448e+01 8.2718061e-25 0.0000000e+00 
9.9994822e+00 -1.5091033e-03 0.0000000e+00 
1.0005821e+01 -6.7519015e-03 0.0000000e+00 
1.0000941e+01 -6.5131057e-03 0.0000000e+00 
1.0009934e+01 -3.1042623e-03 0.0000000e+00 
9.9987698e+00 -3.4289684e-03 0.0000000e+00 
9.9993019e+00 -1.6280694e-03 0.0000000e+00 
1.0007252e+01 -6.3508647e-03 0.0000000e+00 
9.9990959e+00 -4.4244481e-03 0.0000000e+00 
9.9987383e+00 -2.6224381e-03 0.0000000e+00 
1.0000411e+01 -6.1343038e-03 0.0000000e+00 
9.9991045e+00 -1.7898515e-03 0.0000000e+00 
1.0008703e+01 -5.7113222e-03 0.0000000e+00 
1.0011011e+01 -1.8489490e-03 0.0000000e+00 
9.9992437e+00 -5.6644995e-03 0.0000000e+00 
9.9988871e+00 -1.9966967e-03 0.0000000e+00 
9.9985418e+00 -3.9527793e-03 0.0000000e+00 
9.9984913e+00 -2.9971043e-03 0.0000000e+00 
1.0010168e+01 -4.8133419e-03 0.0000000e+00 
1.0003759e+01 -8.1111863e-03 0.0000000e+00 
1.0002605e+01 -7.9380730e-03 0.0000000e+00 
9.9989386e+00 -5.1293336e-03 0.0000000e+00 
1.0005318e+01 -8.1126085e-03 0.0000000e+00 
9.9986439e+00 -2.2531941e-03 0.0000000e+00 
1.0001111e+01 -7.5933114e-03 0.0000000e+00 
9.9992905e+00 -1.3946333e-03 0.0000000e+00 
1.0006840e+01 -7.8901788e-03 0.0000000e+00 
9.9995861e+00 -1.2407736e-03 0.0000000e+00 
1.0012259e+01 8.2718061e-25 0.0000000e+00 
1.0000492e+01 -7.1455925e-03 0.0000000e+00 
9.9990759e+00 -1.5236794e-03 0.0000000e+00 
1.0011658e+01 -3.6300079e-03 0.0000000e+00 
9.9982071e+00 -3.4462472e-03 0.0000000e+00 
1.0008516e+01 -7.4242004e-03 0.0000000e+00 
9.9982786e+00 -4.5747417e-03 0.0000000e+00 
9.9991102e+00 -6.5918681e-03 0.0000000e+00 
9.9983683e+00 -2.5657699e-03 0.0000000e+00 
9.9988394e+00 -1.6873466e-03 0.0000000e+00 
1.0010216e+01 -6.6785733e-03 0.0000000e+00 
9.9987545e+00 -5.9620277e-03 0.0000000e+00 
1.0012927e+01 -2.1623496e-03 0.0000000e+00 
9.9985733e+00 -1.8939318e-03 0.0000000e+00 
9.9978790e+00 -3.9810180e-03 0.0000000e+00 
9.9980545e+00 -2.9422231e-03 0.0000000e+00 
1.0003065e+01 -9.2718042e-03 0.0000000e+00 
1.0004417e+01 -9.4785765e-03 0.0000000e+00 
1.0001307e+01 -8.8641131e-03 0.0000000e+00 
1.0011934e+01 -5.6297467e-03 0.0000000e+00 
1.0006246e+01 -9.4838962e-03 0.0000000e+00 
9.9992895e+00 -1.1356774e-03 0.0000000e+00 
1.0000587e+01 -8.3358735e-03 0.0000000e+00 
9.9979725e+00 -5.3103068e-03 0.0000000e+00 
9.9982719e+00 -2.1480015e-03 0.0000000e+00 
9.9990034e+00 -1.2375435e-03 0.0000000e+00 
1.0008030e+01 -9.2268093e-03 0.0000000e+00 
9.9989538e+00 -7.6841004e-03 0.0000000e+00 
9.9994965e+00 -1.0348071e-03 0.0000000e+00 
1.0014374e+01 8.2718061e-25 0.0000000e+00 
9.9987059e+00 -1.3620803e-03 0.0000000e+00 
1.0013675e+01 -4.2467234e-03 0.0000000e+00 
1.0009995e+01 -8.6840121e-03 0.0000000e+00 
9.9976950e+00 -3.3919259e-03 0.0000000e+00 
9.9985399e+00 -6.9434401e-03 0.0000000e+00 
9.9975014e+00 -4.6147066e-03 0.0000000e+00 
9.9979286e+00 -2.4557228e-03 0.0000000e+00 
9.9983845e+00 -1.5184616e-03 0.0000000e+00 
1.0011986e+01 -7.8133699e-03 0.0000000e+00 
9.9976158e+00 -6.1777765e-03 0.0000000e+00 
9.9980230e+00 -1.7126615e-03 0.0000000e+00 
1.0015168e+01 -2.5297636e-03 0.0000000e+00 
1.0003601e+01 -1.0838812e-02 0.0000000e+00 
1.0001536e+01 -1.0357806e-02 0.0000000e+00 
1.0005188e+01 -1.1084609e-02 0.0000000e+00 
1.0000695e+01 -9.7353123e-03 0.0000000e+00 
9.9972792e+00 -3.9260671e-03 0.0000000e+00 
9.9975357e+00 -2.8246867e-03 0.0000000e+00 
1.0007331e+01 -1.1093847e-02 0.0000000e+00 
1.0014000e+01 -6.5871351e-03 0.0000000e+00 
9.9992008e+00 -9.4972108e-04 0.0000000e+00 
9.9987707e+00 -8.9688338e-03 0.0000000e+00 
9.9989386e+00 -1.0583730e-03 0.0000000e+00 
9.9970627e+00 -5.3630862e-03 0.0000000e+00 
9.9976130e+00 -1.9494565e-03 0.0000000e+00 
1.0009423e+01 -1.0795446e-02 0.0000000e+00 
9.9982891e+00 -8.0982959e-03 0.0000000e+00 
9.9986553e+00 -1.1710129e-03 0.0000000e+00 
9.9994335e+00 -8.2141079e-04 0.0000000e+00 
1.0016849e+01 6.6174449e-24 0.0000000e+00 
1.0011725e+01 -1.0161854e-02 0.0000000e+00 
1.0016033e+01 -4.9696816e-03 0.0000000e+00 
9.9970818e+00 -3.2640037e-03 0.0000000e+00 
9.9971991e+00 -7.1987822e-03 0.0000000e+00 
9.9983387e+00 -1.3129762e-03 0.0000000e+00 
9.9967985e+00 -4.5579411e-03 0.0000000e+00 
9.9971409e+00 -2.2346366e-03 0.0000000e+00 
1.0014057e+01 -9.1439653e-03 0.0000000e+00 
1.0001804e+01 -1.2112458e-02 0.0000000e+00 
1.0004228e+01 -1.2678945e-02 0.0000000e+00 
1.0000821e+01 -1.1379495e-02 0.0000000e+00 
9.9965534e+00 -6.2448271e-03 0.0000000e+00 
1.0006088e+01 -1.2970039e-02 0.0000000e+00 
9.9979801e+00 -1.4869871e-03 0.0000000e+00 
9.9990664e+00 -7.0664007e-04 0.0000000e+00 
1.0017793e+01 -2.9602319e-03 0.0000000e+00 
9.9985571e+00 -1.0478706e-02 0.0000000e+00 
9.9987411e+00 -7.5128971e-04 0.0000000e+00 
1.0008601e+01 -1.2983127e-02 0.0000000e+00 
9.9965563e+00 -3.7845066e-03 0.0000000e+00 
9.9965944e+00 -2.5751519e-03 0.0000000e+00 
9.9979925e+00 -9.4558056e-03 0.0000000e+00 
1.0016418e+01 -7.7091893e-03 0.0000000e+00 
9.9984016e+00 -8.2265661e-04 0.0000000e+00 
9.9962397e+00 -5.3032977e-03 0.0000000e+00 
1.0011053e+01 -1.2635492e-02 0.0000000e+00 
9.9975719e+00 -1.6974706e-03 0.0000000e+00 
9.9967117e+00 -8.3988626e-03 0.0000000e+00 
9.9980183e+00 -9.1517862e-04 0.0000000e+00 
9.9996357e+00 -4.9454346e-04 0.0000000e+00 
1.0019743e+01 6.6174449e-24 0.0000000e+00 
1.0013751e+01 -1.1894590e-02 0.0000000e+00 
1.0018793e+01 -5.8166538e-03 0.0000000e+00 
9.9959602e+00 -2.9792655e-03 0.0000000e+00 
9.9959621e+00 -7.2819949e-03 0.0000000e+00 
9.9975882e+00 -1.0303180e-03 0.0000000e+00 
9.9959469e+00 -4.3990137e-03 0.0000000e+00 
9.9971027e+00 -1.9494675e-03 0.0000000e+00 
1.0002118e+01 -1.4172925e-02 0.0000000e+00 
1.0000967e+01 -1.3310388e-02 0.0000000e+00 
1.0004960e+01 -1.4839072e-02 0.0000000e+00 
9.9983063e+00 -1.2252247e-02 0.0000000e+00 
9.9993362e+00 -4.9123872e-04 0.0000000e+00 
1.0016482e+01 -1.0703295e-02 0.0000000e+00 
1.0007144e+01 -1.5182722e-02 0.0000000e+00 
9.9955902e+00 -6.1807558e-03 0.0000000e+00 
9.9976435e+00 -1.1050469e-02 0.0000000e+00 
9.9970999e+00 -1.1709451e-03 0.0000000e+00 
9.9991016e+00 -5.3973368e-04 0.0000000e+00 
1.0020866e+01 -3.4642490e-03 0.0000000e+00 
1.0010088e+01 -1.5199382e-02 0.0000000e+00 
9.9961405e+00 -9.8081557e-03 0.0000000e+00 
9.9952202e+00 -3.4567444e-03 0.0000000e+00 
9.9965630e+00 -2.2489130e-03 0.0000000e+00 
9.9988651e+00 -6.0234033e-04 0.0000000e+00 
1.0019249e+01 -9.0234494e-03 0.0000000e+00 
1.0012963e+01 -1.4793006e-02 0.0000000e+00 
9.9952364e+00 -5.1226458e-03 0.0000000e+00 
9.9965439e+00 -1.3405194e-03 0.0000000e+00 
9.9952745e+00 -8.5006533e-03 0.0000000e+00 
9.9986076e+00 -6.7835680e-04 0.0000000e+00 
9.9992399e+00 -2.9605761e-04 0.0000000e+00 
1.0023129e+01 2.4815418e-24 0.0000000e+00 
1.0016125e+01 -1.3925203e-02 0.0000000e+00 
1.0022023e+01 -6.8082591e-03 0.0000000e+00 
9.9948311e+00 -7.2123068e-03 0.0000000e+00 
1.0001134e+01 -1.5577476e-02 0.0000000e+00 
9.9959364e+00 -2.6027975e-03 0.0000000e+00 
1.0002486e+01 -1.6592035e-02 0.0000000e+00 
9.9983253e+00 -7.7356765e-04 0.0000000e+00 
9.9980135e+00 -1.4334951e-02 0.0000000e+00 
9.9943552e+00 -4.0190844e-03 0.0000000e+00 
1.0005817e+01 -1.7374283e-02 0.0000000e+00 
9.9959087e+00 -1.5431427e-03 0.0000000e+00 
9.9989347e+00 -2.4807538e-04 0.0000000e+00 
9.9972296e+00 -1.2923045e-02 0.0000000e+00 
9.9985256e+00 -2.5336869e-04 0.0000000e+00 
1.0019322e+01 -1.2529656e-02 0.0000000e+00 
1.0008381e+01 -1.7778791e-02 0.0000000e+00 
9.9954700e+00 -1.1462237e-02 0.0000000e+00 
9.9944067e+00 -5.9732101e-03 0.0000000e+00 
9.9980860e+00 -2.7337493e-04 0.0000000e+00 
9.9980173e+00 -8.9034333e-04 0.0000000e+00 
1.0011832e+01 -1.7798351e-02 0.0000000e+00 
1.0024464e+01 -4.0539638e-03 0.0000000e+00 
9.9944735e+00 -9.9315904e-03 0.0000000e+00 
9.9976082e+00 -3.0929359e-04 0.0000000e+00 
9.9952078e+00 -3.0193222e-03 0.0000000e+00 
9.9951792e+00 -1.7836706e-03 0.0000000e+00 
1.0022563e+01 -1.0561856e-02 0.0000000e+00 
1.0015203e+01 -1.7321726e-02 0.0000000e+00 
9.9933414e+00 -4.6797819e-03 0.0000000e+00 
9.9939442e+00 -8.4239179e-03 0.0000000e+00 
9.9976797e+00 -1.0319422e-03 0.0000000e+00 
9.9970713e+00 -3.5547727e-04 0.0000000e+00 
9.9995556e+00 2.3964520e-05 0.0000000e+00 
1.0027089e+01 2.4815418e-24 0.0000000e+00 
1.0001328e+01 -1.8239118e-02 0.0000000e+00 
9.9976721e+00 -1.6780544e-02 0.0000000e+00 
1.0018905e+01 -1.6303694e-02 0.0000000e+00 
1.0002919e+01 -1.9431993e-02 0.0000000e+00 
9.9967394e+00 -1.5121705e-02 0.0000000e+00 
1.0025804e+01 -7.9683466e-03 0.0000000e+00 
9.9934359e+00 -6.9716545e-03 0.0000000e+00 
9.9964561e+00 -4.1364608e-04 0.0000000e+00 
9.9991331e+00 5.6955261e-05 0.0000000e+00 
1.0006822e+01 -2.0349288e-02 0.0000000e+00 
9.9943409e+00 -2.0678279e-03 0.0000000e+00 
9.9946833e+00 -1.3403121e-02 0.0000000e+00 
9.9943590e+00 -3.5080777e-03 0.0000000e+00 
9.9973087e+00 -1.2023855e-03 0.0000000e+00 
9.9988432e+00 6.3480009e-05 0.0000000e+00 
1.0009832e+01 -2.0824010e-02 0.0000000e+00 
1.0022650e+01 -1.4667463e-02 0.0000000e+00 
9.9935417e+00 -1.1611197e-02 0.0000000e+00 
9.9985209e+00 7.2694194e-05 0.0000000e+00 
9.9921513e+00 -5.4546562e-03 0.0000000e+00 
9.9957466e+00 -4.8600923e-04 0.0000000e+00 
1.0013877e+01 -2.0845143e-02 0.0000000e+00 
1.0028676e+01 -4.7433930e-03 0.0000000e+00 
9.9929047e+00 -9.8462664e-03 0.0000000e+00 
9.9981480e+00 8.3804560e-05 0.0000000e+00 
9.9933767e+00 -2.4023391e-03 0.0000000e+00 
9.9969015e+00 -1.4065203e-03 0.0000000e+00 
1.0026444e+01 -1.2361333e-02 0.0000000e+00 
1.0017828e+01 -2.0284219e-02 0.0000000e+00 
9.9922972e+00 -8.1426222e-03 0.0000000e+00 
9.9933672e+00 -4.0802537e-03 0.0000000e+00 
9.9949217e+00 -5.7527714e-04 0.0000000e+00 
9.9977150e+00 9.6660733e-05 0.0000000e+00 
9.9972763e+00 -1.9652518e-02 0.0000000e+00 
1.0001550e+01 -2.1364134e-02 0.0000000e+00 
9.9961576e+00 -1.7703431e-02 0.0000000e+00 
1.0003429e+01 -2.2766024e-02 0.0000000e+00 
9.9989576e+00 3.2412968e-04 0.0000000e+00 
9.9937592e+00 -1.5680486e-02 0.0000000e+00 
1.0022164e+01 -1.9088069e-02 0.0000000e+00 
9.9992523e+00 3.1322509e-04 0.0000000e+00 
1.0031721e+01 2.4815418e-24 0.0000000e+00 
9.9985771e+00 3.5547765e-04 0.0000000e+00 
1.0008000e+01 -2.3840036e-02 0.0000000e+00 
9.9907541e+00 -6.3622342e-03 0.0000000e+00 
1.0030229e+01 -9.3243988e-03 0.0000000e+00 
9.9924574e+00 -1.3582536e-02 0.0000000e+00 
9.9972105e+00 1.1140574e-04 0.0000000e+00 
9.9964523e+00 -1.6501388e-03 0.0000000e+00 
9.9981651e+00 3.9540525e-04 0.0000000e+00 
9.9922676e+00 -2.7950834e-03 0.0000000e+00 
9.9939594e+00 -6.8476395e-04 0.0000000e+00 
1.0011539e+01 -2.4395330e-02 0.0000000e+00 
9.9916859e+00 -1.1515628e-02 0.0000000e+00 
1.0026547e+01 -1.7168051e-02 0.0000000e+00 
9.9977140e+00 4.4993579e-04 0.0000000e+00 
9.9922066e+00 -4.7488892e-03 0.0000000e+00 
1.0016276e+01 -2.4415670e-02 0.0000000e+00 
9.9966164e+00 1.2834150e-04 0.0000000e+00 
9.9909611e+00 -9.5151197e-03 0.0000000e+00 
1.0033607e+01 -5.5486388e-03 0.0000000e+00 
9.9972057e+00 5.1653018e-04 0.0000000e+00 
9.9959602e+00 -1.9401311e-03 0.0000000e+00 
9.9928360e+00 -8.1850612e-04 0.0000000e+00 
1.0020908e+01 -2.3753142e-02 0.0000000e+00 
1.0030989e+01 -1.4464395e-02 0.0000000e+00 
9.9968176e+00 -2.3025945e-02 0.0000000e+00 
9.9954653e+00 -2.0735698e-02 0.0000000e+00 
9.9891090e+00 -7.4242186e-03 0.0000000e+00 
1.0001806e+01 -2.5033712e-02 0.0000000e+00 
9.9909925e+00 -3.2552758e-03 0.0000000e+00 
9.9966269e+00 5.9735257e-04 0.0000000e+00 
9.9926720e+00 -1.8353147e-02 0.0000000e+00 
9.9959116e+00 1.4786453e-04 0.0000000e+00 