# vtk DataFile Version 4.0
vtk output
ASCII
DATASET UNSTRUCTURED_GRID
POINTS 3806 float
2.0000000e+01 1.0000000e+01 0.0000000e+00 
1.9750000e+01 1.0000000e+01 0.0000000e+00 
2.0000000e+01 9.7500000e+00 0.0000000e+00 
1.9625000e+01 9.7427902e+00 0.0000000e+00 
2.0000000e+01 9.5000000e+00 0.0000000e+00 
1.9500000e+01 1.0000000e+01 0.0000000e+00 
1.9750000e+01 9.5262804e+00 0.0000000e+00 
1.9375000e+01 9.7427902e+00 0.0000000e+00 
1.9500000e+01 9.5262804e+00 0.0000000e+00 
1.9250000e+01 1.0000000e+01 0.0000000e+00 
2.0000000e+01 9.2500000e+00 0.0000000e+00 
1.9645800e+01 9.2998104e+00 0.0000000e+00 
1.9250000e+01 9.5262804e+00 0.0000000e+00 
1.9125000e+01 9.7427902e+00 0.0000000e+00 
1.9375000e+01 9.3097696e+00 0.0000000e+00 
1.9750000e+01 9.0932703e+00 0.0000000e+00 
2.0000000e+01 9.0000000e+00 0.0000000e+00 
1.9000000e+01 1.0000000e+01 0.0000000e+00 
1.9500000e+01 9.0932703e+00 0.0000000e+00 
1.9000000e+01 9.5262804e+00 0.0000000e+00 
1.9125000e+01 9.3097696e+00 0.0000000e+00 
1.8875000e+01 9.7427902e+00 0.0000000e+00 
1.9696400e+01 8.8762598e+00 0.0000000e+00 
1.9250000e+01 9.0932703e+00 0.0000000e+00 
2.0000000e+01 8.7500000e+00 0.0000000e+00 
1.8750000e+01 1.0000000e+01 0.0000000e+00 
1.9375000e+01 8.8767595e+00 0.0000000e+00 
1.8875000e+01 9.3097696e+00 0.0000000e+00 
1.8750000e+01 9.5262804e+00 0.0000000e+00 
1.9000000e+01 9.0932703e+00 0.0000000e+00 
1.9750000e+01 8.6602497e+00 0.0000000e+00 
1.8625000e+01 9.7427902e+00 0.0000000e+00 
1.9125000e+01 8.8767595e+00 0.0000000e+00 
1.9500000e+01 8.6602497e+00 0.0000000e+00 
2.0000000e+01 8.5000000e+00 0.0000000e+00 
1.8500000e+01 1.0000000e+01 0.0000000e+00 
1.9250000e+01 8.6602497e+00 0.0000000e+00 
1.8625000e+01 9.3097696e+00 0.0000000e+00 
1.8750000e+01 9.0932703e+00 0.0000000e+00 
1.8500000e+01 9.5262804e+00 0.0000000e+00 
1.9645800e+01 8.4531202e+00 0.0000000e+00 
1.8875000e+01 8.8767595e+00 0.0000000e+00 
1.8375000e+01 9.7427902e+00 0.0000000e+00 
1.9000000e+01 8.6602497e+00 0.0000000e+00 
1.9375000e+01 8.4437504e+00 0.0000000e+00 
2.0000000e+01 8.2500000e+00 0.0000000e+00 
1.8250000e+01 1.0000000e+01 0.0000000e+00 
1.8500000e+01 9.0932703e+00 0.0000000e+00 
1.8375000e+01 9.3097696e+00 0.0000000e+00 
1.8625000e+01 8.8767595e+00 0.0000000e+00 
1.9125000e+01 8.4437504e+00 0.0000000e+00 
1.9750000e+01 8.2272396e+00 0.0000000e+00 
1.8250000e+01 9.5262804e+00 0.0000000e+00 
1.8750000e+01 8.6602497e+00 0.0000000e+00 
1.9500000e+01 8.2272396e+00 0.0000000e+00 
1.8125000e+01 9.7427902e+00 0.0000000e+00 
1.8875000e+01 8.4437504e+00 0.0000000e+00 
1.9250000e+01 8.2272396e+00 0.0000000e+00 
1.8250000e+01 9.0932703e+00 0.0000000e+00 
1.8375000e+01 8.8767595e+00 0.0000000e+00 
1.8125000e+01 9.3097696e+00 0.0000000e+00 
2.0000000e+01 8.0000000e+00 0.0000000e+00 
1.8000000e+01 1.0000000e+01 0.0000000e+00 
1.8500000e+01 8.6602497e+00 0.0000000e+00 
1.9625000e+01 8.0107298e+00 0.0000000e+00 
1.9000000e+01 8.2272396e+00 0.0000000e+00 
1.8000000e+01 9.5262804e+00 0.0000000e+00 
1.8625000e+01 8.4437504e+00 0.0000000e+00 
1.9375000e+01 8.0107298e+00 0.0000000e+00 
1.7875000e+01 9.7834902e+00 0.0000000e+00 
1.8750000e+01 8.2272396e+00 0.0000000e+00 
1.9125000e+01 8.0107298e+00 0.0000000e+00 
1.8125000e+01 8.8767595e+00 0.0000000e+00 
1.8000000e+01 9.0932703e+00 0.0000000e+00 
1.8250000e+01 8.6602497e+00 0.0000000e+00 
1.9750000e+01 7.7942300e+00 0.0000000e+00 
1.7875000e+01 9.3097696e+00 0.0000000e+00 
2.0000000e+01 7.7500000e+00 0.0000000e+00 
1.7750000e+01 1.0000000e+01 0.0000000e+00 
1.8375000e+01 8.4437504e+00 0.0000000e+00 
1.9500000e+01 7.7942300e+00 0.0000000e+00 
1.8875000e+01 8.0107298e+00 0.0000000e+00 
1.7750000e+01 9.5262804e+00 0.0000000e+00 
1.8500000e+01 8.2272396e+00 0.0000000e+00 
1.9250000e+01 7.7942300e+00 0.0000000e+00 
1.7625000e+01 9.7834902e+00 0.0000000e+00 
1.7875000e+01 8.8767595e+00 0.0000000e+00 
1.8000000e+01 8.6602497e+00 0.0000000e+00 
1.8625000e+01 8.0107298e+00 0.0000000e+00 
1.9000000e+01 7.7942300e+00 0.0000000e+00 
1.7750000e+01 9.0932703e+00 0.0000000e+00 
1.8125000e+01 8.4437504e+00 0.0000000e+00 
1.9645800e+01 7.5647702e+00 0.0000000e+00 
1.7625000e+01 9.3097696e+00 0.0000000e+00 
1.8250000e+01 8.2272396e+00 0.0000000e+00 
2.0000000e+01 7.5000000e+00 0.0000000e+00 
1.7500000e+01 1.0000000e+01 0.0000000e+00 
1.9375000e+01 7.5777202e+00 0.0000000e+00 
1.8750000e+01 7.7942300e+00 0.0000000e+00 
1.7500000e+01 9.5262804e+00 0.0000000e+00 
1.8375000e+01 8.0107298e+00 0.0000000e+00 
1.9125000e+01 7.5777202e+00 0.0000000e+00 
1.7750000e+01 8.6602497e+00 0.0000000e+00 
1.7625000e+01 8.8767595e+00 0.0000000e+00 
1.7875000e+01 8.4437504e+00 0.0000000e+00 
1.7375000e+01 9.7427902e+00 0.0000000e+00 
1.9768499e+01 7.3630099e+00 0.0000000e+00 
1.7500000e+01 9.0932703e+00 0.0000000e+00 
1.8500000e+01 7.7942300e+00 0.0000000e+00 
1.8875000e+01 7.5777202e+00 0.0000000e+00 
1.8000000e+01 8.2272396e+00 0.0000000e+00 
1.9500000e+01 7.3612199e+00 0.0000000e+00 
1.7375000e+01 9.3097696e+00 0.0000000e+00 
1.8125000e+01 8.0107298e+00 0.0000000e+00 
1.9250000e+01 7.3612199e+00 0.0000000e+00 
2.0000000e+01 7.2500000e+00 0.0000000e+00 
1.7250000e+01 1.0000000e+01 0.0000000e+00 
1.8625000e+01 7.5777202e+00 0.0000000e+00 
1.7250000e+01 9.5262804e+00 0.0000000e+00 
1.8250000e+01 7.7942300e+00 0.0000000e+00 
1.9000000e+01 7.3612199e+00 0.0000000e+00 
1.7500000e+01 8.6602497e+00 0.0000000e+00 
1.7625000e+01 8.4437504e+00 0.0000000e+00 
1.7375000e+01 8.8767595e+00 0.0000000e+00 
1.7750000e+01 8.2272396e+00 0.0000000e+00 
1.9696400e+01 7.1390800e+00 0.0000000e+00 
1.7125000e+01 9.7427902e+00 0.0000000e+00 
1.7250000e+01 9.0932703e+00 0.0000000e+00 
1.7875000e+01 8.0107298e+00 0.0000000e+00 
1.8375000e+01 7.5777202e+00 0.0000000e+00 
1.8750000e+01 7.3612199e+00 0.0000000e+00 
1.9375000e+01 7.1447101e+00 0.0000000e+00 
1.7125000e+01 9.3097696e+00 0.0000000e+00 
1.8000000e+01 7.7942300e+00 0.0000000e+00 
1.9125000e+01 7.1447101e+00 0.0000000e+00 
2.0000000e+01 7.0000000e+00 0.0000000e+00 
1.7000000e+01 1.0000000e+01 0.0000000e+00 
1.8500000e+01 7.3612199e+00 0.0000000e+00 
1.7000000e+01 9.5262804e+00 0.0000000e+00 
1.7375000e+01 8.4437504e+00 0.0000000e+00 
1.7250000e+01 8.6602497e+00 0.0000000e+00 
1.8125000e+01 7.5777202e+00 0.0000000e+00 
1.7500000e+01 8.2272396e+00 0.0000000e+00 
1.8875000e+01 7.1447101e+00 0.0000000e+00 
1.9750000e+01 6.9281998e+00 0.0000000e+00 
1.7125000e+01 8.8767595e+00 0.0000000e+00 
1.7625000e+01 8.0107298e+00 0.0000000e+00 
1.9500000e+01 6.9281998e+00 0.0000000e+00 
1.7000000e+01 9.0932703e+00 0.0000000e+00 
1.6875000e+01 9.7427902e+00 0.0000000e+00 
1.7750000e+01 7.7942300e+00 0.0000000e+00 
1.9250000e+01 6.9281998e+00 0.0000000e+00 
1.8250000e+01 7.3612199e+00 0.0000000e+00 
1.8625000e+01 7.1447101e+00 0.0000000e+00 
1.6875000e+01 9.3097696e+00 0.0000000e+00 
1.7875000e+01 7.5777202e+00 0.0000000e+00 
1.9000000e+01 6.9281998e+00 0.0000000e+00 
2.0000000e+01 6.7500000e+00 0.0000000e+00 
1.6750000e+01 1.0000000e+01 0.0000000e+00 
1.7125000e+01 8.4437504e+00 0.0000000e+00 
1.7250000e+01 8.2272396e+00 0.0000000e+00 
1.6750000e+01 9.5262804e+00 0.0000000e+00 
1.8375000e+01 7.1447101e+00 0.0000000e+00 
1.7000000e+01 8.6602497e+00 0.0000000e+00 
1.7375000e+01 8.0107298e+00 0.0000000e+00 
1.9645800e+01 6.7180800e+00 0.0000000e+00 
1.8000000e+01 7.3612199e+00 0.0000000e+00 
1.8750000e+01 6.9281998e+00 0.0000000e+00 
1.6875000e+01 8.8767595e+00 0.0000000e+00 
1.7500000e+01 7.7942300e+00 0.0000000e+00 
1.9375000e+01 6.7117000e+00 0.0000000e+00 
1.6750000e+01 9.0932703e+00 0.0000000e+00 
1.6625000e+01 9.7427902e+00 0.0000000e+00 
1.7625000e+01 7.5777202e+00 0.0000000e+00 
1.9125000e+01 6.7117000e+00 0.0000000e+00 
1.8125000e+01 7.1447101e+00 0.0000000e+00 
1.8500000e+01 6.9281998e+00 0.0000000e+00 
1.6625000e+01 9.3097696e+00 0.0000000e+00 
1.7750000e+01 7.3612199e+00 0.0000000e+00 
1.8875000e+01 6.7117000e+00 0.0000000e+00 
1.7000000e+01 8.2272396e+00 0.0000000e+00 
1.6875000e+01 8.4437504e+00 0.0000000e+00 
1.7125000e+01 8.0107298e+00 0.0000000e+00 
2.0000000e+01 6.5000000e+00 0.0000000e+00 
1.6500000e+01 1.0000000e+01 0.0000000e+00 
1.9750000e+01 6.4951901e+00 0.0000000e+00 
1.6750000e+01 8.6602497e+00 0.0000000e+00 
1.7250000e+01 7.7942300e+00 0.0000000e+00 
1.6500000e+01 9.5262804e+00 0.0000000e+00 
1.8250000e+01 6.9281998e+00 0.0000000e+00 
1.9500000e+01 6.4951901e+00 0.0000000e+00 
1.6625000e+01 8.8767595e+00 0.0000000e+00 
1.7875000e+01 7.1447101e+00 0.0000000e+00 
1.8625000e+01 6.7117000e+00 0.0000000e+00 
1.7375000e+01 7.5777202e+00 0.0000000e+00 
1.9250000e+01 6.4951901e+00 0.0000000e+00 
1.6500000e+01 9.0932703e+00 0.0000000e+00 
1.6375000e+01 9.7427902e+00 0.0000000e+00 
1.7500000e+01 7.3612199e+00 0.0000000e+00 
1.9000000e+01 6.4951901e+00 0.0000000e+00 
1.8000000e+01 6.9281998e+00 0.0000000e+00 
1.8375000e+01 6.7117000e+00 0.0000000e+00 
1.6375000e+01 9.3097696e+00 0.0000000e+00 
1.6750000e+01 8.2272396e+00 0.0000000e+00 
1.6875000e+01 8.0107298e+00 0.0000000e+00 
1.7625000e+01 7.1447101e+00 0.0000000e+00 
1.6625000e+01 8.4437504e+00 0.0000000e+00 
1.8750000e+01 6.4951901e+00 0.0000000e+00 
1.7000000e+01 7.7942300e+00 0.0000000e+00 
1.9625000e+01 6.2786798e+00 0.0000000e+00 
1.6500000e+01 8.6602497e+00 0.0000000e+00 
2.0000000e+01 6.2500000e+00 0.0000000e+00 
1.6250000e+01 1.0000000e+01 0.0000000e+00 
1.7125000e+01 7.5777202e+00 0.0000000e+00 
1.9375000e+01 6.2786798e+00 0.0000000e+00 
1.6250000e+01 9.5262804e+00 0.0000000e+00 
1.8125000e+01 6.7117000e+00 0.0000000e+00 
1.6375000e+01 8.8767595e+00 0.0000000e+00 
1.7750000e+01 6.9281998e+00 0.0000000e+00 
1.7250000e+01 7.3612199e+00 0.0000000e+00 
1.8500000e+01 6.4951901e+00 0.0000000e+00 
1.9125000e+01 6.2786798e+00 0.0000000e+00 
1.6250000e+01 9.0932703e+00 0.0000000e+00 
1.7375000e+01 7.1447101e+00 0.0000000e+00 
1.6125000e+01 9.7427902e+00 0.0000000e+00 
[...]
POINT_DATA 3806
FIELD FieldData 2
VELOCITY 3 3806  float
1.0000380e+01 9.4350289e-25 0.0000000e+00 
1.0000710e+01 1.5509636e-25 0.0000000e+00 
1.0000319e+01 -3.2132212e-04 0.0000000e+00 
1.0000812e+01 -3.5619712e-04 0.0000000e+00 
1.0000342e+01 -6.4067240e-04 0.0000000e+00 
1.0001060e+01 -2.8951321e-24 0.0000000e+00 
1.0000656e+01 -6.3045224e-04 0.0000000e+00 
1.0001164e+01 -3.8520287e-04 0.0000000e+00 
1.0000991e+01 -6.7225489e-04 0.0000000e+00 
1.0001440e+01 -2.8951321e-24 0.0000000e+00 
1.0000300e+01 -9.3108474e-04 0.0000000e+00 
1.0000735e+01 -9.3525404e-04 0.0000000e+00 
1.0001352e+01 -7.3104817e-04 0.0000000e+00 
1.0001548e+01 -4.2315805e-04 0.0000000e+00 
1.0001090e+01 -1.0026986e-03 0.0000000e+00 
1.0000561e+01 -1.1564639e-03 0.0000000e+00 
1.0000275e+01 -1.2134241e-03 0.0000000e+00 
1.0001857e+01 1.5509636e-24 0.0000000e+00 
1.0000853e+01 -1.2369039e-03 0.0000000e+00 
1.0001749e+01 -8.0902391e-04 0.0000000e+00 
1.0001444e+01 -1.1011071e-03 0.0000000e+00 
1.0001972e+01 -4.7179766e-04 0.0000000e+00 
1.0000558e+01 -1.4032591e-03 0.0000000e+00 
1.0001168e+01 -1.3447296e-03 0.0000000e+00 
1.0000225e+01 -1.4606572e-03 0.0000000e+00 
1.0002321e+01 1.5509636e-24 0.0000000e+00 
1.0000907e+01 -1.5450132e-03 0.0000000e+00 
1.0001836e+01 -1.2273174e-03 0.0000000e+00 
1.0002190e+01 -9.0771151e-04 0.0000000e+00 
1.0001513e+01 -1.4879628e-03 0.0000000e+00 
1.0000424e+01 -1.5985795e-03 0.0000000e+00 
1.0002449e+01 -5.3231273e-04 0.0000000e+00 
1.0001204e+01 -1.6969350e-03 0.0000000e+00 
1.0000655e+01 -1.7069277e-03 0.0000000e+00 
1.0000193e+01 -1.6563808e-03 0.0000000e+00 
1.0002845e+01 1.5509636e-24 0.0000000e+00 
1.0000901e+01 -1.8561218e-03 0.0000000e+00 
1.0002276e+01 -1.3849941e-03 0.0000000e+00 
1.0001899e+01 -1.6692509e-03 0.0000000e+00 
1.0002687e+01 -1.0300566e-03 0.0000000e+00 
1.0000443e+01 -1.8097644e-03 0.0000000e+00 
1.0001532e+01 -1.8908673e-03 0.0000000e+00 
1.0002990e+01 -6.0593442e-04 0.0000000e+00 
1.0001171e+01 -2.0530454e-03 0.0000000e+00 
1.0000658e+01 -1.9730546e-03 0.0000000e+00 
1.0000109e+01 -1.8461088e-03 0.0000000e+00 
1.0003441e+01 1.4475661e-24 0.0000000e+00 
1.0002332e+01 -1.8933475e-03 0.0000000e+00 
1.0002776e+01 -1.5782457e-03 0.0000000e+00 
1.0001900e+01 -2.1332358e-03 0.0000000e+00 
1.0000876e+01 -2.1651222e-03 0.0000000e+00 
1.0000248e+01 -1.9238566e-03 0.0000000e+00 
1.0003254e+01 -1.1793005e-03 0.0000000e+00 
1.0001472e+01 -2.3023493e-03 0.0000000e+00 
1.0000392e+01 -2.0489073e-03 0.0000000e+00 
1.0003612e+01 -6.9292128e-04 0.0000000e+00 
1.0001118e+01 -2.4117075e-03 0.0000000e+00 
1.0000547e+01 -2.2266712e-03 0.0000000e+00 
1.0002826e+01 -2.1665934e-03 0.0000000e+00 
1.0002316e+01 -2.4305056e-03 0.0000000e+00 
1.0003346e+01 -1.8124747e-03 0.0000000e+00 
1.0000101e+01 -1.9476855e-03 0.0000000e+00 
1.0004121e+01 1.4475661e-24 0.0000000e+00 
1.0001809e+01 -2.6106627e-03 0.0000000e+00 
1.0000266e+01 -2.0890206e-03 0.0000000e+00 
1.0000717e+01 -2.4617659e-03 0.0000000e+00 
1.0003906e+01 -1.3634136e-03 0.0000000e+00 
1.0001387e+01 -2.7198705e-03 0.0000000e+00 
1.0000386e+01 -2.2538395e-03 0.0000000e+00 
1.0004345e+01 -6.7674619e-04 0.0000000e+00 
1.0000906e+01 -2.7594639e-03 0.0000000e+00 
1.0000516e+01 -2.4709601e-03 0.0000000e+00 
1.0002792e+01 -2.7904888e-03 0.0000000e+00 
1.0003392e+01 -2.4954085e-03 0.0000000e+00 
1.0002193e+01 -2.9861256e-03 0.0000000e+00 
1.0000033e+01 -2.0940905e-03 0.0000000e+00 
1.0004004e+01 -2.0930027e-03 0.0000000e+00 
9.9999695e+00 -2.0342015e-03 0.0000000e+00 
1.0004925e+01 3.1019273e-25 0.0000000e+00 
1.0001691e+01 -3.0977570e-03 0.0000000e+00 
1.0000067e+01 -2.2349558e-03 0.0000000e+00 
1.0000658e+01 -2.7510498e-03 0.0000000e+00 
1.0004655e+01 -1.5742196e-03 0.0000000e+00 
1.0001119e+01 -3.1276057e-03 0.0000000e+00 
1.0000108e+01 -2.4293866e-03 0.0000000e+00 
1.0005174e+01 -7.9230347e-04 0.0000000e+00 
1.0003341e+01 -3.2229489e-03 0.0000000e+00 
1.0002634e+01 -3.4387920e-03 0.0000000e+00 
1.0000816e+01 -3.1011270e-03 0.0000000e+00 
1.0000156e+01 -2.6843213e-03 0.0000000e+00 
1.0004046e+01 -2.8892118e-03 0.0000000e+00 
1.0002039e+01 -3.5554012e-03 0.0000000e+00 
1.0000072e+01 -2.1824194e-03 0.0000000e+00 
1.0004769e+01 -2.4299482e-03 0.0000000e+00 
1.0001359e+01 -3.5759355e-03 0.0000000e+00 
9.9999866e+00 -2.0585731e-03 0.0000000e+00 
1.0005852e+01 1.2407709e-24 0.0000000e+00 
1.0000119e+01 -2.3621756e-03 0.0000000e+00 
1.0000211e+01 -3.0071831e-03 0.0000000e+00 
1.0005521e+01 -1.8240985e-03 0.0000000e+00 
1.0000995e+01 -3.5303137e-03 0.0000000e+00 
1.0000156e+01 -2.5885613e-03 0.0000000e+00 
1.0003142e+01 -3.9807907e-03 0.0000000e+00 
1.0003975e+01 -3.7393479e-03 0.0000000e+00 
1.0002438e+01 -4.1049737e-03 0.0000000e+00 
1.0006108e+01 -1.0900453e-03 0.0000000e+00 
9.9997940e+00 -2.1086445e-03 0.0000000e+00 
1.0004806e+01 -3.3592908e-03 0.0000000e+00 
1.0000270e+01 -3.4064213e-03 0.0000000e+00 
1.0000197e+01 -2.8806073e-03 0.0000000e+00 
1.0001635e+01 -4.1163522e-03 0.0000000e+00 
9.9997301e+00 -2.2585371e-03 0.0000000e+00 
1.0005655e+01 -2.8305703e-03 0.0000000e+00 
1.0001197e+01 -4.0498981e-03 0.0000000e+00 
9.9996681e+00 -2.4549826e-03 0.0000000e+00 
9.9998560e+00 -2.0006455e-03 0.0000000e+00 
1.0006913e+01 1.2407709e-24 0.0000000e+00 
1.0000242e+01 -3.2452312e-03 0.0000000e+00 
1.0006539e+01 -2.1322579e-03 0.0000000e+00 
1.0000337e+01 -3.8925007e-03 0.0000000e+00 
9.9995975e+00 -2.7110546e-03 0.0000000e+00 
1.0003731e+01 -4.6265614e-03 0.0000000e+00 
1.0002898e+01 -4.7611622e-03 0.0000000e+00 
1.0004711e+01 -4.3535428e-03 0.0000000e+00 
1.0001951e+01 -4.7632470e-03 0.0000000e+00 
9.9998360e+00 -2.0850971e-03 0.0000000e+00 
1.0007234e+01 -1.2704028e-03 0.0000000e+00 
1.0005688e+01 -3.9168177e-03 0.0000000e+00 
1.0001428e+01 -4.6736225e-03 0.0000000e+00 
1.0000292e+01 -3.6919834e-03 0.0000000e+00 
9.9995174e+00 -3.0353407e-03 0.0000000e+00 
9.9997511e+00 -2.2884225e-03 0.0000000e+00 
1.0006688e+01 -3.3037327e-03 0.0000000e+00 
1.0000411e+01 -4.4782227e-03 0.0000000e+00 
9.9996729e+00 -2.5071697e-03 0.0000000e+00 
9.9998598e+00 -1.9597607e-03 0.0000000e+00 
1.0008157e+01 3.3087225e-24 0.0000000e+00 
9.9994249e+00 -3.4361240e-03 0.0000000e+00 
1.0007725e+01 -2.4924881e-03 0.0000000e+00 
1.0003432e+01 -5.5415509e-03 0.0000000e+00 
1.0004416e+01 -5.3935237e-03 0.0000000e+00 
1.0000347e+01 -4.2325212e-03 0.0000000e+00 
1.0002316e+01 -5.5339267e-03 0.0000000e+00 
9.9995871e+00 -2.7873362e-03 0.0000000e+00 
9.9996767e+00 -1.9814449e-03 0.0000000e+00 
1.0005569e+01 -5.0821304e-03 0.0000000e+00 
1.0001694e+01 -5.4180613e-03 0.0000000e+00 
9.9995441e+00 -2.1165609e-03 0.0000000e+00 
1.0006718e+01 -4.5775846e-03 0.0000000e+00 
1.0008548e+01 -1.4868287e-03 0.0000000e+00 
1.0000496e+01 -5.1790946e-03 0.0000000e+00 
9.9994011e+00 -2.2949157e-03 0.0000000e+00 
9.9993172e+00 -3.9237435e-03 0.0000000e+00 
9.9994898e+00 -3.1373727e-03 0.0000000e+00 
1.0007895e+01 -3.8645917e-03 0.0000000e+00 
1.0000408e+01 -4.8809960e-03 0.0000000e+00 
9.9992428e+00 -2.5322367e-03 0.0000000e+00 
9.9997444e+00 -1.8005135e-03 0.0000000e+00 
1.0009612e+01 3.3087225e-24 0.0000000e+00 
1.0004054e+01 -6.4670979e-03 0.0000000e+00 
1.0002741e+01 -6.4490763e-03 0.0000000e+00 
1.0009109e+01 -2.9185077e-03 0.0000000e+00 
9.9993782e+00 -3.5661606e-03 0.0000000e+00 
1.0005214e+01 -6.3022333e-03 0.0000000e+00 
1.0002000e+01 -6.3030929e-03 0.0000000e+00 
9.9995222e+00 -1.9029323e-03 0.0000000e+00 
9.9991922e+00 -4.5108544e-03 0.0000000e+00 
9.9990654e+00 -2.8323496e-03 0.0000000e+00 
1.0006572e+01 -5.9445212e-03 0.0000000e+00 
1.0000592e+01 -6.0137743e-03 0.0000000e+00 
9.9993286e+00 -2.0542999e-03 0.0000000e+00 
1.0007923e+01 -5.3591672e-03 0.0000000e+00 
1.0010088e+01 -1.7420681e-03 0.0000000e+00 
1.0000476e+01 -5.6544766e-03 0.0000000e+00 
9.9991369e+00 -2.2483973e-03 0.0000000e+00 
9.9992476e+00 -4.0846979e-03 0.0000000e+00 
9.9988632e+00 -3.2027361e-03 0.0000000e+00 
1.0009309e+01 -4.5276703e-03 0.0000000e+00 
9.9990463e+00 -5.2127894e-03 0.0000000e+00 
9.9989262e+00 -2.4976963e-03 0.0000000e+00 
1.0003235e+01 -7.5333733e-03 0.0000000e+00 
1.0004778e+01 -7.5627649e-03 0.0000000e+00 
1.0002354e+01 -7.3524727e-03 0.0000000e+00 
9.9997520e+00 -1.6541074e-03 0.0000000e+00 
1.0011317e+01 -5.7902643e-24 0.0000000e+00 
9.9995623e+00 -1.7050485e-03 0.0000000e+00 
1.0006146e+01 -7.3772077e-03 0.0000000e+00 
1.0000703e+01 -7.0046182e-03 0.0000000e+00 
1.0010730e+01 -3.4217171e-03 0.0000000e+00 
9.9986315e+00 -3.6526548e-03 0.0000000e+00 
9.9993601e+00 -1.8077553e-03 0.0000000e+00 
1.0007744e+01 -6.9639781e-03 0.0000000e+00 
9.9990931e+00 -4.7063623e-03 0.0000000e+00 
9.9986887e+00 -2.8089494e-03 0.0000000e+00 
1.0000550e+01 -6.5734498e-03 0.0000000e+00 
9.9991398e+00 -1.9610699e-03 0.0000000e+00 
1.0009335e+01 -6.2824977e-03 0.0000000e+00 
1.0011894e+01 -2.0431711e-03 0.0000000e+00 
9.9988766e+00 -6.0480069e-03 0.0000000e+00 
9.9988995e+00 -2.1635455e-03 0.0000000e+00 
9.9983625e+00 -4.1933977e-03 0.0000000e+00 
9.9984217e+00 -3.1899442e-03 0.0000000e+00 
1.0010966e+01 -5.3105238e-03 0.0000000e+00 
1.0003811e+01 -8.8161556e-03 0.0000000e+00 
1.0002763e+01 -8.5945064e-03 0.0000000e+00 
9.9989100e+00 -5.4473006e-03 0.0000000e+00 
1.0005624e+01 -8.8581461e-03 0.0000000e+00 
9.9986334e+00 -2.4194496e-03 0.0000000e+00 
1.0000831e+01 -8.1783319e-03 0.0000000e+00 
9.9993773e+00 -1.5697388e-03 0.0000000e+00 
1.0007238e+01 -8.6474335e-03 0.0000000e+00 
9.9997206e+00 -1.4215556e-03 0.0000000e+00 
1.0013315e+01 -5.7902643e-24 0.0000000e+00 
1.0000631e+01 -7.6624276e-03 0.0000000e+00 
9.9991531e+00 -1.6881045e-03 0.0000000e+00 
1.0012630e+01 -4.0154965e-03 0.0000000e+00 
9.9981174e+00 -3.6501938e-03 0.0000000e+00 
1.0009118e+01 -8.1678815e-03 0.0000000e+00 
9.9980497e+00 -4.8386105e-03 0.0000000e+00 
9.9986782e+00 -7.0386417e-03 0.0000000e+00 
9.9983339e+00 -2.7352662e-03 0.0000000e+00 
9.9989052e+00 -1.8442977e-03 0.0000000e+00 
1.0010989e+01 -7.3722336e-03 0.0000000e+00 
9.9986906e+00 -6.3269110e-03 0.0000000e+00 
1.0014014e+01 -2.3981738e-03 0.0000000e+00 
9.9986248e+00 -2.0480987e-03 0.0000000e+00 
9.9977684e+00 -4.2012539e-03 0.0000000e+00 
9.9979944e+00 -3.1189094e-03 0.0000000e+00 
1.0003239e+01 -1.0062863e-02 0.0000000e+00 
1.0004485e+01 -1.0332252e-02 0.0000000e+00 
1.0000979e+01 -9.5667550e-03 0.0000000e+00 
1.0012912e+01 -6.2339194e-03 0.0000000e+00 
1.0006614e+01 -1.0388289e-02 0.0000000e+00 
9.9993200e+00 -1.2478769e-03 0.0000000e+00 
1.0000717e+01 -8.9506749e-03 0.0000000e+00 
9.9976845e+00 -5.6046918e-03 0.0000000e+00 
9.9983063e+00 -2.3028224e-03 0.0000000e+00 
9.9989204e+00 -1.3577088e-03 0.0000000e+00 
1.0008518e+01 -1.0147139e-02 0.0000000e+00 
9.9984474e+00 -8.2111713e-03 0.0000000e+00 
9.9995556e+00 -1.1710813e-03 0.0000000e+00 
1.0015660e+01 -5.7902643e-24 0.0000000e+00 
9.9985294e+00 -1.4766072e-03 0.0000000e+00 
1.0014860e+01 -4.7155311e-03 0.0000000e+00 
1.0010730e+01 -9.5884716e-03 0.0000000e+00 
9.9976044e+00 -3.5799672e-03 0.0000000e+00 
9.9984255e+00 -7.3684310e-03 0.0000000e+00 
9.9973679e+00 -4.8570600e-03 0.0000000e+00 
9.9979439e+00 -2.6141156e-03 0.0000000e+00 
9.9981232e+00 -1.6251929e-03 0.0000000e+00 
1.0012933e+01 -8.6573586e-03 0.0000000e+00 
9.9972544e+00 -6.5112771e-03 0.0000000e+00 
9.9976740e+00 -1.8130122e-03 0.0000000e+00 
1.0016506e+01 -2.8164121e-03 0.0000000e+00 
1.0003790e+01 -1.1797531e-02 0.0000000e+00 
1.0001154e+01 -1.1207793e-02 0.0000000e+00 
1.0005275e+01 -1.2122927e-02 0.0000000e+00 
1.0000809e+01 -1.0473089e-02 0.0000000e+00 
9.9971523e+00 -4.1299923e-03 0.0000000e+00 
9.9975262e+00 -2.9892898e-03 0.0000000e+00 
1.0007774e+01 -1.2194609e-02 0.0000000e+00 
1.0015196e+01 -7.3222271e-03 0.0000000e+00 
9.9993820e+00 -1.0525221e-03 0.0000000e+00 
9.9981794e+00 -9.5972242e-03 0.0000000e+00 
9.9991341e+00 -1.1458478e-03 0.0000000e+00 
9.9969063e+00 -5.6343372e-03 0.0000000e+00 
9.9971647e+00 -2.0443616e-03 0.0000000e+00 
1.0010021e+01 -1.1916665e-02 0.0000000e+00 
9.9981041e+00 -8.5996557e-03 0.0000000e+00 
9.9988489e+00 -1.2481348e-03 0.0000000e+00 
9.9994774e+00 -9.8459632e-04 0.0000000e+00 
1.0018413e+01 -8.2718061e-25 0.0000000e+00 
1.0012624e+01 -1.1263638e-02 0.0000000e+00 
1.0017480e+01 -5.5401595e-03 0.0000000e+00 
9.9970436e+00 -3.4372457e-03 0.0000000e+00 
9.9967470e+00 -7.5818421e-03 0.0000000e+00 
9.9985285e+00 -1.3806125e-03 0.0000000e+00 
9.9966269e+00 -4.7828439e-03 0.0000000e+00 
9.9965792e+00 -2.3244210e-03 0.0000000e+00 
1.0015216e+01 -1.0171840e-02 0.0000000e+00 
1.0001358e+01 -1.3146530e-02 0.0000000e+00 
1.0004433e+01 -1.3845936e-02 0.0000000e+00 
1.0000905e+01 -1.2271247e-02 0.0000000e+00 
9.9963722e+00 -6.5531102e-03 0.0000000e+00 
1.0006202e+01 -1.4237005e-02 0.0000000e+00 
9.9981661e+00 -1.5439750e-03 0.0000000e+00 
9.9989538e+00 -7.8785233e-04 0.0000000e+00 
1.0019435e+01 -3.3087574e-03 0.0000000e+00 
9.9978676e+00 -1.1234561e-02 0.0000000e+00 
9.9985399e+00 -8.0043916e-04 0.0000000e+00 
1.0009137e+01 -1.4325955e-02 0.0000000e+00 
9.9964800e+00 -3.9686426e-03 0.0000000e+00 
9.9959002e+00 -2.6594305e-03 0.0000000e+00 
9.9977140e+00 -1.0053815e-02 0.0000000e+00 
1.0017880e+01 -8.6039295e-03 0.0000000e+00 
9.9981384e+00 -8.5903209e-04 0.0000000e+00 
9.9960117e+00 -5.5551045e-03 0.0000000e+00 
1.0011788e+01 -1.4003451e-02 0.0000000e+00 
9.9977541e+00 -1.7423069e-03 0.0000000e+00 
9.9961481e+00 -8.8444399e-03 0.0000000e+00 
9.9976873e+00 -9.4071828e-04 0.0000000e+00 
1.0000196e+01 -4.8955798e-04 0.0000000e+00 
1.0021645e+01 -8.2718061e-25 0.0000000e+00 
1.0014850e+01 -1.3237801e-02 0.0000000e+00 
1.0020556e+01 -6.5107518e-03 0.0000000e+00 
9.9951096e+00 -3.0568163e-03 0.0000000e+00 
9.9957542e+00 -7.6373317e-03 0.0000000e+00 
9.9971876e+00 -1.0443995e-03 0.0000000e+00 
9.9958200e+00 -4.5961672e-03 0.0000000e+00 
9.9972811e+00 -1.9797052e-03 0.0000000e+00 
1.0001600e+01 -1.5436544e-02 0.0000000e+00 
1.0001003e+01 -1.4394666e-02 0.0000000e+00 
1.0005182e+01 -1.6264273e-02 0.0000000e+00 
9.9975061e+00 -1.3168253e-02 0.0000000e+00 
1.0000058e+01 -5.4132496e-04 0.0000000e+00 
1.0017900e+01 -1.1955371e-02 0.0000000e+00 
1.0007293e+01 -1.6732156e-02 0.0000000e+00 
9.9952888e+00 -6.4665922e-03 0.0000000e+00 
9.9972391e+00 -1.1770636e-02 0.0000000e+00 
9.9966354e+00 -1.1723634e-03 0.0000000e+00 
9.9999914e+00 -6.2445999e-04 0.0000000e+00 
1.0022878e+01 -3.8878440e-03 0.0000000e+00 
1.0010737e+01 -1.6839834e-02 0.0000000e+00 
9.9954386e+00 -1.0332607e-02 0.0000000e+00 
9.9941835e+00 -3.5253565e-03 0.0000000e+00 
9.9967337e+00 -2.2608642e-03 0.0000000e+00 
9.9999266e+00 -6.9893053e-04 0.0000000e+00 
1.0021036e+01 -1.0112203e-02 0.0000000e+00 
1.0013867e+01 -1.6463153e-02 0.0000000e+00 
9.9950418e+00 -5.3348788e-03 0.0000000e+00 
9.9960203e+00 -1.3273977e-03 0.0000000e+00 
9.9950371e+00 -8.9156600e-03 0.0000000e+00 
9.9998713e+00 -7.8539195e-04 0.0000000e+00 
9.9990902e+00 -3.9609970e-04 0.0000000e+00 
1.0025440e+01 1.6543612e-24 0.0000000e+00 
1.0017467e+01 -1.5562884e-02 0.0000000e+00 
1.0024173e+01 -7.6521230e-03 0.0000000e+00 
9.9944353e+00 -7.5409915e-03 0.0000000e+00 
1.0001101e+01 -1.6902307e-02 0.0000000e+00 
9.9960966e+00 -2.5912675e-03 0.0000000e+00 
1.0001889e+01 -1.8141456e-02 0.0000000e+00 
9.9998379e+00 -8.9629256e-04 0.0000000e+00 
9.9970884e+00 -1.5452105e-02 0.0000000e+00 
9.9930973e+00 -4.0753908e-03 0.0000000e+00 
1.0006058e+01 -1.9119039e-02 0.0000000e+00 
9.9953327e+00 -1.5127505e-03 0.0000000e+00 
9.9986839e+00 -3.5430471e-04 0.0000000e+00 
9.9966593e+00 -1.3797642e-02 0.0000000e+00 
9.9980612e+00 -3.4644449e-04 0.0000000e+00 
1.0021058e+01 -1.4054176e-02 0.0000000e+00 
1.0008577e+01 -1.9676391e-02 0.0000000e+00 
9.9945974e+00 -1.2086478e-02 0.0000000e+00 
9.9941196e+00 -6.2026433e-03 0.0000000e+00 
9.9974165e+00 -3.7159893e-04 0.0000000e+00 
9.9998331e+00 -1.0336980e-03 0.0000000e+00 
1.0012622e+01 -1.9803800e-02 0.0000000e+00 
1.0026926e+01 -4.5682993e-03 0.0000000e+00 
9.9942036e+00 -1.0422423e-02 0.0000000e+00 
9.9967499e+00 -4.3064810e-04 0.0000000e+00 
9.9953518e+00 -2.9773193e-03 0.0000000e+00 
9.9945631e+00 -1.7322365e-03 0.0000000e+00 
1.0024747e+01 -1.1885541e-02 0.0000000e+00 
1.0016315e+01 -1.9360889e-02 0.0000000e+00 
9.9918184e+00 -4.7190837e-03 0.0000000e+00 
9.9934263e+00 -8.8066403e-03 0.0000000e+00 
9.9998674e+00 -1.2012582e-03 0.0000000e+00 
9.9960146e+00 -5.0667807e-04 0.0000000e+00 
9.9997377e+00 5.1718689e-05 0.0000000e+00 
1.0029899e+01 1.6543612e-24 0.0000000e+00 
1.0001199e+01 -1.9864360e-02 0.0000000e+00 
9.9966078e+00 -1.8150363e-02 0.0000000e+00 
1.0020550e+01 -1.8299386e-02 0.0000000e+00 
1.0002236e+01 -2.1336764e-02 0.0000000e+00 
9.9959517e+00 -1.6191725e-02 0.0000000e+00 
1.0028423e+01 -8.9929635e-03 0.0000000e+00 
9.9930248e+00 -7.2206827e-03 0.0000000e+00 
9.9951811e+00 -6.0263590e-04 0.0000000e+00 
9.9991961e+00 9.4989235e-05 0.0000000e+00 
1.0007084e+01 -2.2488829e-02 0.0000000e+00 
9.9937019e+00 -1.9903281e-03 0.0000000e+00 
9.9935999e+00 -1.4154165e-02 0.0000000e+00 
9.9944782e+00 -3.4264945e-03 0.0000000e+00 
9.9999504e+00 -1.4036153e-03 0.0000000e+00 
9.9988422e+00 1.0219138e-04 0.0000000e+00 
1.0010095e+01 -2.3149770e-02 0.0000000e+00 
1.0024775e+01 -1.6521893e-02 0.0000000e+00 
9.9932365e+00 -1.2198812e-02 0.0000000e+00 
9.9984303e+00 1.1305948e-04 0.0000000e+00 
9.9903107e+00 -5.4707644e-03 0.0000000e+00 
9.9942265e+00 -7.2233996e-04 0.0000000e+00 
1.0014841e+01 -2.3297017e-02 0.0000000e+00 
1.0031684e+01 -5.3669824e-03 0.0000000e+00 
9.9922285e+00 -1.0297504e-02 0.0000000e+00 
9.9979258e+00 1.2811288e-04 0.0000000e+00 
9.9927378e+00 -2.2922596e-03 0.0000000e+00 
1.0000095e+01 -1.6463477e-03 0.0000000e+00 
1.0029111e+01 -1.3968425e-02 0.0000000e+00 
1.0019201e+01 -2.2772625e-02 0.0000000e+00 
9.9917183e+00 -8.4142592e-03 0.0000000e+00 
9.9934511e+00 -3.9475299e-03 0.0000000e+00 
9.9931250e+00 -8.7038463e-04 0.0000000e+00 
9.9973135e+00 1.4646597e-04 0.0000000e+00 
9.9960575e+00 -2.1339772e-02 0.0000000e+00 
1.0001291e+01 -2.3364363e-02 0.0000000e+00 
9.9950886e+00 -1.9021055e-02 0.0000000e+00 
1.0002655e+01 -2.5111973e-02 0.0000000e+00 
9.9987602e+00 4.5206404e-04 0.0000000e+00 
9.9924164e+00 -1.6593436e-02 0.0000000e+00 
1.0024179e+01 -2.1517545e-02 0.0000000e+00 
9.9991179e+00 4.2754004e-04 0.0000000e+00 
1.0035134e+01 1.6543612e-24 0.0000000e+00 
9.9982376e+00 4.8531959e-04 0.0000000e+00 
1.0008288e+01 -2.6466394e-02 0.0000000e+00 
9.9885311e+00 -6.3473578e-03 0.0000000e+00 
1.0033419e+01 -1.0566287e-02 0.0000000e+00 
9.9921112e+00 -1.4294358e-02 0.0000000e+00 
9.9965687e+00 1.6815813e-04 0.0000000e+00 
1.0000317e+01 -1.9360380e-03 0.0000000e+00 
9.9976931e+00 5.3777755e-04 0.0000000e+00 
9.9916611e+00 -2.6441545e-03 0.0000000e+00 
9.9918499e+00 -1.0522669e-03 0.0000000e+00 
1.0011890e+01 -2.7246332e-02 0.0000000e+00 
9.9908037e+00 -1.2054401e-02 0.0000000e+00 
1.0029148e+01 -1.9420490e-02 0.0000000e+00 
9.9971151e+00 6.1715452e-04 0.0000000e+00 
9.9922400e+00 -4.5506838e-03 0.0000000e+00 
1.0017461e+01 -2.7411994e-02 0.0000000e+00 
9.9956598e+00 1.9365619e-04 0.0000000e+00 
9.9901562e+00 -9.8135499e-03 0.0000000e+00 
1.0037276e+01 -6.3032196e-03 0.0000000e+00 
9.9964800e+00 7.1514741e-04 0.0000000e+00 
1.0000633e+01 -2.2803850e-03 0.0000000e+00 
9.9903727e+00 -1.2745198e-03 0.0000000e+00 
1.0022606e+01 -2.6786659e-02 0.0000000e+00 
1.0034243e+01 -1.6411982e-02 0.0000000e+00 
9.9954309e+00 -2.5112033e-02 0.0000000e+00 
9.9940357e+00 -2.2367407e-02 0.0000000e+00 
9.9864283e+00 -7.3689497e-03 0.0000000e+00 
1.0001378e+01 -2.7501717e-02 0.0000000e+00 
9.9904604e+00 -3.0531941e-03 0.0000000e+00 
9.9957685e+00 8.3550235e-04 0.0000000e+00 
9.9910107e+00 -1.9473806e-02 0.0000000e+00 
9.9945450e+00 2.2362420e-04 0.0000000e+00 