# vtk DataFile Version 4.0
vtk output
ASCII
DATASET UNSTRUCTURED_GRID
POINTS 3806 float
2.0000000e+01 1.0000000e+01 0.0000000e+00 
1.9750000e+01 1.0000000e+01 0.0000000e+00 
2.0000000e+01 9.7500000e+00 0.0000000e+00 
1.9625000e+01 9.7427902e+00 0.0000000e+00 
2.0000000e+01 9.5000000e+00 0.0000000e+00 
1.9500000e+01 1.0000000e+01 0.0000000e+00 
1.9750000e+01 9.5262804e+00 0.0000000e+00 
1.9375000e+01 9.7427902e+00 0.0000000e+00 
1.9500000e+01 9.5262804e+00 0.0000000e+00 
1.9250000e+01 1.0000000e+01 0.0000000e+00 
2.0000000e+01 9.2500000e+00 0.0000000e+00 
1.9645800e+01 9.2998104e+00 0.0000000e+00 
1.9250000e+01 9.5262804e+00 0.0000000e+00 
1.9125000e+01 9.7427902e+00 0.0000000e+00 
1.9375000e+01 9.3097696e+00 0.0000000e+00 
1.9750000e+01 9.0932703e+00 0.0000000e+00 
2.0000000e+01 9.0000000e+00 0.0000000e+00 
1.9000000e+01 1.0000000e+01 0.0000000e+00 
1.9500000e+01 9.0932703e+00 0.0000000e+00 
1.9000000e+01 9.5262804e+00 0.0000000e+00 
1.9125000e+01 9.3097696e+00 0.0000000e+00 
1.8875000e+01 9.7427902e+00 0.0000000e+00 
1.9696400e+01 8.8762598e+00 0.0000000e+00 
1.9250000e+01 9.0932703e+00 0.0000000e+00 
2.0000000e+01 8.7500000e+00 0.0000000e+00 
1.8750000e+01 1.0000000e+01 0.0000000e+00 
1.9375000e+01 8.8767595e+00 0.0000000e+00 
1.8875000e+01 9.3097696e+00 0.0000000e+00 
1.8750000e+01 9.5262804e+00 0.0000000e+00 
1.9000000e+01 9.0932703e+00 0.0000000e+00 
1.9750000e+01 8.6602497e+00 0.0000000e+00 
1.8625000e+01 9.7427902e+00 0.0000000e+00 
1.9125000e+01 8.8767595e+00 0.0000000e+00 
1.9500000e+01 8.6602497e+00 0.0000000e+00 
2.0000000e+01 8.5000000e+00 0.0000000e+00 
1.8500000e+01 1.0000000e+01 0.0000000e+00 
1.9250000e+01 8.6602497e+00 0.0000000e+00 
1.8625000e+01 9.3097696e+00 0.0000000e+00 
1.8750000e+01 9.0932703e+00 0.0000000e+00 
1.8500000e+01 9.5262804e+00 0.0000000e+00 
1.9645800e+01 8.4531202e+00 0.0000000e+00 
1.8875000e+01 8.8767595e+00 0.0000000e+00 
1.8375000e+01 9.7427902e+00 0.0000000e+00 
1.9000000e+01 8.6602497e+00 0.0000000e+00 
1.9375000e+01 8.4437504e+00 0.0000000e+00 
2.0000000e+01 8.2500000e+00 0.0000000e+00 
1.8250000e+01 1.0000000e+01 0.0000000e+00 
1.8500000e+01 9.0932703e+00 0.0000000e+00 
1.8375000e+01 9.3097696e+00 0.0000000e+00 
1.8625000e+01 8.8767595e+00 0.0000000e+00 
1.9125000e+01 8.4437504e+00 0.0000000e+00 
1.9750000e+01 8.2272396e+00 0.0000000e+00 
1.8250000e+01 9.5262804e+00 0.0000000e+00 
1.8750000e+01 8.6602497e+00 0.0000000e+00 
1.9500000e+01 8.2272396e+00 0.0000000e+00 
1.8125000e+01 9.7427902e+00 0.0000000e+00 
1.8875000e+01 8.4437504e+00 0.0000000e+00 
1.9250000e+01 8.2272396e+00 0.0000000e+00 
1.8250000e+01 9.0932703e+00 0.0000000e+00 
1.8375000e+01 8.8767595e+00 0.0000000e+00 
1.8125000e+01 9.3097696e+00 0.0000000e+00 
2.0000000e+01 8.0000000e+00 0.0000000e+00 
1.8000000e+01 1.0000000e+01 0.0000000e+00 
1.8500000e+01 8.6602497e+00 0.0000000e+00 
1.9625000e+01 8.0107298e+00 0.0000000e+00 
1.9000000e+01 8.2272396e+00 0.0000000e+00 
1.8000000e+01 9.5262804e+00 0.0000000e+00 
1.8625000e+01 8.4437504e+00 0.0000000e+00 
1.9375000e+01 8.0107298e+00 0.0000000e+00 
1.7875000e+01 9.7834902e+00 0.0000000e+00 
1.8750000e+01 8.2272396e+00 0.0000000e+00 
1.9125000e+01 8.0107298e+00 0.0000000e+00 
1.8125000e+01 8.8767595e+00 0.0000000e+00 
1.8000000e+01 9.0932703e+00 0.0000000e+00 
1.8250000e+01 8.6602497e+00 0.0000000e+00 
1.9750000e+01 7.7942300e+00 0.0000000e+00 
1.7875000e+01 9.3097696e+00 0.0000000e+00 
2.0000000e+01 7.7500000e+00 0.0000000e+00 
1.7750000e+01 1.0000000e+01 0.0000000e+00 
1.8375000e+01 8.4437504e+00 0.0000000e+00 
1.9500000e+01 7.7942300e+00 0.0000000e+00 
1.8875000e+01 8.0107298e+00 0.0000000e+00 
1.7750000e+01 9.5262804e+00 0.0000000e+00 
1.8500000e+01 8.2272396e+00 0.0000000e+00 
1.9250000e+01 7.7942300e+00 0.0000000e+00 
1.7625000e+01 9.7834902e+00 0.0000000e+00 
1.7875000e+01 8.8767595e+00 0.0000000e+00 
1.8000000e+01 8.6602497e+00 0.0000000e+00 
1.8625000e+01 8.0107298e+00 0.0000000e+00 
1.9000000e+01 7.7942300e+00 0.0000000e+00 
1.7750000e+01 9.0932703e+00 0.0000000e+00 
1.8125000e+01 8.4437504e+00 0.0000000e+00 
1.9645800e+01 7.5647702e+00 0.0000000e+00 
1.7625000e+01 9.3097696e+00 0.0000000e+00 
1.8250000e+01 8.2272396e+00 0.0000000e+00 
2.0000000e+01 7.5000000e+00 0.0000000e+00 
1.7500000e+01 1.0000000e+01 0.0000000e+00 
1.9375000e+01 7.5777202e+00 0.0000000e+00 
1.8750000e+01 7.7942300e+00 0.0000000e+00 
1.7500000e+01 9.5262804e+00 0.0000000e+00 
1.8375000e+01 8.0107298e+00 0.0000000e+00 
1.9125000e+01 7.5777202e+00 0.0000000e+00 
1.7750000e+01 8.6602497e+00 0.0000000e+00 
1.7625000e+01 8.8767595e+00 0.0000000e+00 
1.7875000e+01 8.4437504e+00 0.0000000e+00 
1.7375000e+01 9.7427902e+00 0.0000000e+00 
1.9768499e+01 7.3630099e+00 0.0000000e+00 
1.7500000e+01 9.0932703e+00 0.0000000e+00 
1.8500000e+01 7.7942300e+00 0.0000000e+00 
1.8875000e+01 7.5777202e+00 0.0000000e+00 
1.8000000e+01 8.2272396e+00 0.0000000e+00 
1.9500000e+01 7.3612199e+00 0.0000000e+00 
1.7375000e+01 9.3097696e+00 0.0000000e+00 
1.8125000e+01 8.0107298e+00 0.0000000e+00 
1.9250000e+01 7.3612199e+00 0.0000000e+00 
2.0000000e+01 7.2500000e+00 0.0000000e+00 
1.7250000e+01 1.0000000e+01 0.0000000e+00 
1.8625000e+01 7.5777202e+00 0.0000000e+00 
1.7250000e+01 9.5262804e+00 0.0000000e+00 
1.8250000e+01 7.7942300e+00 0.0000000e+00 
1.9000000e+01 7.3612199e+00 0.0000000e+00 
1.7500000e+01 8.6602497e+00 0.0000000e+00 
1.7625000e+01 8.4437504e+00 0.0000000e+00 
1.7375000e+01 8.8767595e+00 0.0000000e+00 
1.7750000e+01 8.2272396e+00 0.0000000e+00 
1.9696400e+01 7.1390800e+00 0.0000000e+00 
1.7125000e+01 9.7427902e+00 0.0000000e+00 
1.7250000e+01 9.0932703e+00 0.0000000e+00 
1.7875000e+01 8.0107298e+00 0.0000000e+00 
1.8375000e+01 7.5777202e+00 0.0000000e+00 
1.8750000e+01 7.3612199e+00 0.0000000e+00 
1.9375000e+01 7.1447101e+00 0.0000000e+00 
1.7125000e+01 9.3097696e+00 0.0000000e+00 
1.8000000e+01 7.7942300e+00 0.0000000e+00 
1.9125000e+01 7.1447101e+00 0.0000000e+00 
2.0000000e+01 7.0000000e+00 0.0000000e+00 
1.7000000e+01 1.0000000e+01 0.0000000e+00 
1.8500000e+01 7.3612199e+00 0.0000000e+00 
1.7000000e+01 9.5262804e+00 0.0000000e+00 
1.7375000e+01 8.4437504e+00 0.0000000e+00 
1.7250000e+01 8.6602497e+00 0.0000000e+00 
1.8125000e+01 7.5777202e+00 0.0000000e+00 
1.7500000e+01 8.2272396e+00 0.0000000e+00 
1.8875000e+01 7.1447101e+00 0.0000000e+00 
1.9750000e+01 6.9281998e+00 0.0000000e+00 
1.7125000e+01 8.8767595e+00 0.0000000e+00 
1.7625000e+01 8.0107298e+00 0.0000000e+00 
1.9500000e+01 6.9281998e+00 0.0000000e+00 
1.7000000e+01 9.0932703e+00 0.0000000e+00 
1.6875000e+01 9.7427902e+00 0.0000000e+00 
1.7750000e+01 7.7942300e+00 0.0000000e+00 
1.9250000e+01 6.9281998e+00 0.0000000e+00 
1.8250000e+01 7.3612199e+00 0.0000000e+00 
1.8625000e+01 7.1447101e+00 0.0000000e+00 
1.6875000e+01 9.3097696e+00 0.0000000e+00 
1.7875000e+01 7.5777202e+00 0.0000000e+00 
1.9000000e+01 6.9281998e+00 0.0000000e+00 
2.0000000e+01 6.7500000e+00 0.0000000e+00 
1.6750000e+01 1.0000000e+01 0.0000000e+00 
1.7125000e+01 8.4437504e+00 0.0000000e+00 
1.7250000e+01 8.2272396e+00 0.0000000e+00 
1.6750000e+01 9.5262804e+00 0.0000000e+00 
1.8375000e+01 7.1447101e+00 0.0000000e+00 
1.7000000e+01 8.6602497e+00 0.0000000e+00 
1.7375000e+01 8.0107298e+00 0.0000000e+00 
1.9645800e+01 6.7180800e+00 0.0000000e+00 
1.8000000e+01 7.3612199e+00 0.0000000e+00 
1.8750000e+01 6.9281998e+00 0.0000000e+00 
1.6875000e+01 8.8767595e+00 0.0000000e+00 
1.7500000e+01 7.7942300e+00 0.0000000e+00 
1.9375000e+01 6.7117000e+00 0.0000000e+00 
1.6750000e+01 9.0932703e+00 0.0000000e+00 
1.6625000e+01 9.7427902e+00 0.0000000e+00 
1.7625000e+01 7.5777202e+00 0.0000000e+00 
1.9125000e+01 6.7117000e+00 0.0000000e+00 
1.8125000e+01 7.1447101e+00 0.0000000e+00 
1.8500000e+01 6.9281998e+00 0.0000000e+00 
1.6625000e+01 9.3097696e+00 0.0000000e+00 
1.7750000e+01 7.3612199e+00 0.0000000e+00 
1.8875000e+01 6.7117000e+00 0.0000000e+00 
1.7000000e+01 8.2272396e+00 0.0000000e+00 
1.6875000e+01 8.4437504e+00 0.0000000e+00 
1.7125000e+01 8.0107298e+00 0.0000000e+00 
2.0000000e+01 6.5000000e+00 0.0000000e+00 
1.6500000e+01 1.0000000e+01 0.0000000e+00 
1.9750000e+01 6.4951901e+00 0.0000000e+00 
1.6750000e+01 8.6602497e+00 0.0000000e+00 
1.7250000e+01 7.7942300e+00 0.0000000e+00 
1.6500000e+01 9.5262804e+00 0.0000000e+00 
1.8250000e+01 6.9281998e+00 0.0000000e+00 
1.9500000e+01 6.4951901e+00 0.0000000e+00 
1.6625000e+01 8.8767595e+00 0.0000000e+00 
1.7875000e+01 7.1447101e+00 0.0000000e+00 
1.8625000e+01 6.7117000e+00 0.0000000e+00 
1.7375000e+01 7.5777202e+00 0.0000000e+00 
1.9250000e+01 6.4951901e+00 0.0000000e+00 
1.6500000e+01 9.0932703e+00 0.0000000e+00 
1.6375000e+01 9.7427902e+00 0.0000000e+00 
1.7500000e+01 7.3612199e+00 0.0000000e+00 
1.9000000e+01 6.4951901e+00 0.0000000e+00 
1.8000000e+01 6.9281998e+00 0.0000000e+00 
1.8375000e+01 6.7117000e+00 0.0000000e+00 
1.6375000e+01 9.3097696e+00 0.0000000e+00 
1.6750000e+01 8.2272396e+00 0.0000000e+00 
1.6875000e+01 8.0107298e+00 0.0000000e+00 
1.7625000e+01 7.1447101e+00 0.0000000e+00 
1.6625000e+01 8.4437504e+00 0.0000000e+00 
1.8750000e+01 6.4951901e+00 0.0000000e+00 
1.7000000e+01 7.7942300e+00 0.0000000e+00 
1.9625000e+01 6.2786798e+00 0.0000000e+00 
1.6500000e+01 8.6602497e+00 0.0000000e+00 
2.0000000e+01 6.2500000e+00 0.0000000e+00 
1.6250000e+01 1.0000000e+01 0.0000000e+00 
1.7125000e+01 7.5777202e+00 0.0000000e+00 
1.9375000e+01 6.2786798e+00 0.0000000e+00 
1.6250000e+01 9.5262804e+00 0.0000000e+00 
1.8125000e+01 6.7117000e+00 0.0000000e+00 
1.6375000e+01 8.8767595e+00 0.0000000e+00 
1.7750000e+01 6.9281998e+00 0.0000000e+00 
1.7250000e+01 7.3612199e+00 0.0000000e+00 
1.8500000e+01 6.4951901e+00 0.0000000e+00 
1.9125000e+01 6.2786798e+00 0.0000000e+00 
1.6250000e+01 9.0932703e+00 0.0000000e+00 
1.7375000e+01 7.1447101e+00 0.0000000e+00 
1.6125000e+01 9.7427902e+00 0.0000000e+00 
[...]
POINT_DATA 3806
FIELD FieldData 2
VELOCITY 3 3806  float
1.0000561e+01 -9.9261674e-24 0.0000000e+00 
1.0000598e+01 7.4446255e-24 0.0000000e+00 
1.0000550e+01 -3.4600365e-05 0.0000000e+00 
1.0000617e+01 -5.6266621e-05 0.0000000e+00 
1.0000533e+01 -6.4383334e-05 0.0000000e+00 
1.0000654e+01 6.6174449e-24 0.0000000e+00 
1.0000570e+01 -8.9549445e-05 0.0000000e+00 
1.0000679e+01 -7.3119358e-05 0.0000000e+00 
1.0000625e+01 -1.1833748e-04 0.0000000e+00 
1.0000727e+01 6.6174449e-24 0.0000000e+00 
1.0000498e+01 -9.9394281e-05 0.0000000e+00 
1.0000563e+01 -1.4702861e-04 0.0000000e+00 
1.0000694e+01 -1.4988348e-04 0.0000000e+00 
1.0000758e+01 -9.1386049e-05 0.0000000e+00 
1.0000626e+01 -1.9138175e-04 0.0000000e+00 
1.0000504e+01 -1.6426876e-04 0.0000000e+00 
1.0000451e+01 -1.2606051e-04 0.0000000e+00 
1.0000816e+01 4.1359031e-24 0.0000000e+00 
1.0000550e+01 -2.1771630e-04 0.0000000e+00 
1.0000780e+01 -1.8520045e-04 0.0000000e+00 
1.0000698e+01 -2.3927663e-04 0.0000000e+00 
1.0000856e+01 -1.1189190e-04 0.0000000e+00 
1.0000463e+01 -2.1213214e-04 0.0000000e+00 
1.0000611e+01 -2.7561077e-04 0.0000000e+00 
1.0000397e+01 -1.5190117e-04 0.0000000e+00 
1.0000926e+01 4.1359031e-24 0.0000000e+00 
1.0000525e+01 -2.9487276e-04 0.0000000e+00 
1.0000788e+01 -2.9299321e-04 0.0000000e+00 
1.0000885e+01 -2.2508732e-04 0.0000000e+00 
1.0000687e+01 -3.4057547e-04 0.0000000e+00 
1.0000399e+01 -2.2743625e-04 0.0000000e+00 
1.0000975e+01 -1.3515855e-04 0.0000000e+00 
1.0000586e+01 -3.6940022e-04 0.0000000e+00 
1.0000436e+01 -3.0082322e-04 0.0000000e+00 
1.0000329e+01 -1.7719975e-04 0.0000000e+00 
1.0001060e+01 4.1359031e-24 0.0000000e+00 
1.0000484e+01 -3.8114018e-04 0.0000000e+00 
1.0000897e+01 -3.5393212e-04 0.0000000e+00 
1.0000779e+01 -4.1394244e-04 0.0000000e+00 
1.0001012e+01 -2.7049411e-04 0.0000000e+00 
1.0000350e+01 -2.8408424e-04 0.0000000e+00 
1.0000661e+01 -4.5231290e-04 0.0000000e+00 
1.0001118e+01 -1.6185678e-04 0.0000000e+00 
1.0000544e+01 -4.7100187e-04 0.0000000e+00 
1.0000385e+01 -3.7771912e-04 0.0000000e+00 
1.0000255e+01 -1.8635068e-04 0.0000000e+00 
1.0001218e+01 1.8611564e-23 0.0000000e+00 
1.0000891e+01 -4.9750804e-04 0.0000000e+00 
1.0001028e+01 -4.2359199e-04 0.0000000e+00 
1.0000752e+01 -5.4638577e-04 0.0000000e+00 
1.0000430e+01 -4.7233215e-04 0.0000000e+00 
1.0000265e+01 -2.7273380e-04 0.0000000e+00 
1.0001163e+01 -3.2248552e-04 0.0000000e+00 
1.0000617e+01 -5.7248917e-04 0.0000000e+00 
1.0000290e+01 -3.6188349e-04 0.0000000e+00 
1.0001288e+01 -1.9274392e-04 0.0000000e+00 
1.0000485e+01 -5.7840935e-04 0.0000000e+00 
1.0000321e+01 -4.5869322e-04 0.0000000e+00 
1.0001024e+01 -5.9330364e-04 0.0000000e+00 
1.0000863e+01 -6.5392611e-04 0.0000000e+00 
1.0001185e+01 -5.0371821e-04 0.0000000e+00 
1.0000174e+01 -2.0897653e-04 0.0000000e+00 
1.0001408e+01 1.8611564e-23 0.0000000e+00 
1.0000706e+01 -6.8808265e-04 0.0000000e+00 
1.0000198e+01 -3.3328772e-04 0.0000000e+00 
1.0000360e+01 -5.6686375e-04 0.0000000e+00 
1.0001343e+01 -3.8189691e-04 0.0000000e+00 
1.0000553e+01 -6.9874735e-04 0.0000000e+00 
1.0000218e+01 -4.3238973e-04 0.0000000e+00 
1.0001495e+01 -1.9388861e-04 0.0000000e+00 
1.0000409e+01 -6.8901910e-04 0.0000000e+00 
1.0000244e+01 -5.4057443e-04 0.0000000e+00 
1.0000995e+01 -7.7758636e-04 0.0000000e+00 
1.0001184e+01 -7.0375029e-04 0.0000000e+00 
1.0000811e+01 -8.2063390e-04 0.0000000e+00 
1.0000109e+01 -2.9910647e-04 0.0000000e+00 
1.0001371e+01 -5.9640361e-04 0.0000000e+00 
1.0000091e+01 -2.0646997e-04 0.0000000e+00 
1.0001632e+01 8.2718061e-24 0.0000000e+00 
1.0000634e+01 -8.3630963e-04 0.0000000e+00 
1.0000120e+01 -3.9648617e-04 0.0000000e+00 
1.0000276e+01 -6.6204916e-04 0.0000000e+00 
1.0001557e+01 -4.5098492e-04 0.0000000e+00 
1.0000468e+01 -8.2816504e-04 0.0000000e+00 
1.0000134e+01 -5.0258159e-04 0.0000000e+00 
1.0001735e+01 -2.2775946e-04 0.0000000e+00 
1.0001151e+01 -9.2038227e-04 0.0000000e+00 
1.0000937e+01 -9.7340171e-04 0.0000000e+00 
1.0000314e+01 -7.9982687e-04 0.0000000e+00 
1.0000151e+01 -6.2110811e-04 0.0000000e+00 
1.0001371e+01 -8.3152478e-04 0.0000000e+00 
1.0000731e+01 -9.9448278e-04 0.0000000e+00 
1.0000029e+01 -3.4441386e-04 0.0000000e+00 
1.0001592e+01 -7.0346356e-04 0.0000000e+00 
1.0000538e+01 -9.8773011e-04 0.0000000e+00 
1.0000002e+01 -2.1909841e-04 0.0000000e+00 
1.0001894e+01 -4.9630837e-24 0.0000000e+00 
1.0000036e+01 -4.5523280e-04 0.0000000e+00 
1.0000172e+01 -7.5496314e-04 0.0000000e+00 
1.0001810e+01 -5.3216686e-04 0.0000000e+00 
1.0000360e+01 -9.5732248e-04 0.0000000e+00 
1.0000039e+01 -5.6925055e-04 0.0000000e+00 
1.0001085e+01 -1.1501384e-03 0.0000000e+00 
1.0001336e+01 -1.0858241e-03 0.0000000e+00 
1.0000846e+01 -1.1771603e-03 0.0000000e+00 
1.0002010e+01 -3.1532574e-04 0.0000000e+00 
9.9999504e+00 -2.9794493e-04 0.0000000e+00 
1.0001593e+01 -9.7971410e-04 0.0000000e+00 
1.0000196e+01 -9.0744696e-04 0.0000000e+00 
1.0000044e+01 -6.9711363e-04 0.0000000e+00 
1.0000622e+01 -1.1716455e-03 0.0000000e+00 
9.9999437e+00 -4.0203414e-04 0.0000000e+00 
1.0001850e+01 -8.2755130e-04 0.0000000e+00 
1.0000414e+01 -1.1384259e-03 0.0000000e+00 
9.9999380e+00 -5.0957513e-04 0.0000000e+00 
9.9999132e+00 -2.1257919e-04 0.0000000e+00 
1.0002204e+01 -4.9630837e-24 0.0000000e+00 
1.0000051e+01 -8.4218057e-04 0.0000000e+00 
1.0002105e+01 -6.2645308e-04 0.0000000e+00 
1.0000226e+01 -1.0823216e-03 0.0000000e+00 
9.9999304e+00 -6.2972034e-04 0.0000000e+00 
1.0001262e+01 -1.3551917e-03 0.0000000e+00 
1.0000982e+01 -1.3888363e-03 0.0000000e+00 
1.0001554e+01 -1.2779984e-03 0.0000000e+00 
1.0000720e+01 -1.3844403e-03 0.0000000e+00 
9.9998655e+00 -3.1885988e-04 0.0000000e+00 
1.0002343e+01 -3.7115530e-04 0.0000000e+00 
1.0001854e+01 -1.1520457e-03 0.0000000e+00 
1.0000479e+01 -1.3476039e-03 0.0000000e+00 
1.0000057e+01 -1.0080348e-03 0.0000000e+00 
9.9999208e+00 -7.6544104e-04 0.0000000e+00 
9.9998503e+00 -4.4391272e-04 0.0000000e+00 
1.0002155e+01 -9.7236782e-04 0.0000000e+00 
1.0000260e+01 -1.2839016e-03 0.0000000e+00 
9.9998322e+00 -5.5610022e-04 0.0000000e+00 
9.9998302e+00 -2.0430589e-04 0.0000000e+00 
1.0002567e+01 -1.3234890e-23 0.0000000e+00 
9.9999104e+00 -9.2006091e-04 0.0000000e+00 
1.0002452e+01 -7.3544547e-04 0.0000000e+00 
1.0001143e+01 -1.6347114e-03 0.0000000e+00 
1.0001468e+01 -1.5935876e-03 0.0000000e+00 
1.0000066e+01 -1.1987718e-03 0.0000000e+00 
1.0000837e+01 -1.6313515e-03 0.0000000e+00 
9.9998102e+00 -6.8094867e-04 0.0000000e+00 
9.9997902e+00 -2.8529947e-04 0.0000000e+00 
1.0001809e+01 -1.5015758e-03 0.0000000e+00 
1.0000556e+01 -1.5900116e-03 0.0000000e+00 
9.9997721e+00 -3.7830832e-04 0.0000000e+00 
1.0002161e+01 -1.3526313e-03 0.0000000e+00 
1.0002732e+01 -4.3547997e-04 0.0000000e+00 
1.0000302e+01 -1.5171594e-03 0.0000000e+00 
9.9997473e+00 -4.7906698e-04 0.0000000e+00 
9.9998960e+00 -1.0974000e-03 0.0000000e+00 
9.9997835e+00 -8.2263869e-04 0.0000000e+00 
1.0002513e+01 -1.1410376e-03 0.0000000e+00 
1.0000076e+01 -1.4191010e-03 0.0000000e+00 
9.9997149e+00 -5.9203419e-04 0.0000000e+00 
9.9997482e+00 -1.9533238e-04 0.0000000e+00 
1.0002995e+01 -1.3234890e-23 0.0000000e+00 
1.0001330e+01 -1.9208264e-03 0.0000000e+00 
1.0000975e+01 -1.9184527e-03 0.0000000e+00 
1.0002860e+01 -8.6251332e-04 0.0000000e+00 
9.9997511e+00 -9.8465895e-04 0.0000000e+00 
1.0001711e+01 -1.8711779e-03 0.0000000e+00 
1.0000647e+01 -1.8716207e-03 0.0000000e+00 
9.9997082e+00 -3.0408602e-04 0.0000000e+00 
9.9998808e+00 -1.3018402e-03 0.0000000e+00 
9.9996767e+00 -7.1964203e-04 0.0000000e+00 
1.0002110e+01 -1.7620540e-03 0.0000000e+00 
1.0000351e+01 -1.7878477e-03 0.0000000e+00 
9.9996748e+00 -4.0139587e-04 0.0000000e+00 
1.0002521e+01 -1.5864178e-03 0.0000000e+00 
1.0003188e+01 -5.1048782e-04 0.0000000e+00 
1.0000089e+01 -1.6744623e-03 0.0000000e+00 
9.9996367e+00 -5.0192390e-04 0.0000000e+00 
9.9997139e+00 -1.1710085e-03 0.0000000e+00 
9.9996309e+00 -8.6502591e-04 0.0000000e+00 
1.0002934e+01 -1.3376600e-03 0.0000000e+00 
9.9998617e+00 -1.5384338e-03 0.0000000e+00 
9.9995899e+00 -6.1465672e-04 0.0000000e+00 
1.0001136e+01 -2.2527997e-03 0.0000000e+00 
1.0001552e+01 -2.2541992e-03 0.0000000e+00 
1.0000753e+01 -2.1993639e-03 0.0000000e+00 
9.9996729e+00 -1.6943569e-04 0.0000000e+00 
1.0003495e+01 -2.3161057e-23 0.0000000e+00 
9.9996500e+00 -2.4602882e-04 0.0000000e+00 
1.0001996e+01 -2.1947557e-03 0.0000000e+00 
1.0000409e+01 -2.1026407e-03 0.0000000e+00 
1.0003338e+01 -1.0107182e-03 0.0000000e+00 
9.9995747e+00 -1.0317841e-03 0.0000000e+00 
9.9996166e+00 -3.2622056e-04 0.0000000e+00 
1.0002462e+01 -2.0657931e-03 0.0000000e+00 
9.9996681e+00 -1.3862931e-03 0.0000000e+00 
9.9995327e+00 -7.4257667e-04 0.0000000e+00 
1.0000104e+01 -1.9711603e-03 0.0000000e+00 
9.9995737e+00 -4.1335012e-04 0.0000000e+00 
1.0002942e+01 -1.8591097e-03 0.0000000e+00 
1.0003723e+01 -5.9799250e-04 0.0000000e+00 
9.9998388e+00 -1.8130284e-03 0.0000000e+00 
9.9995213e+00 -5.1081192e-04 0.0000000e+00 
9.9995089e+00 -1.2240438e-03 0.0000000e+00 
9.9994640e+00 -8.8885002e-04 0.0000000e+00 
1.0003426e+01 -1.5670368e-03 0.0000000e+00 
1.0001326e+01 -2.6426038e-03 0.0000000e+00 
1.0000879e+01 -2.5813058e-03 0.0000000e+00 
9.9996147e+00 -1.6358376e-03 0.0000000e+00 
1.0001811e+01 -2.6429989e-03 0.0000000e+00 
9.9994564e+00 -6.2090508e-04 0.0000000e+00 
1.0000477e+01 -2.4692977e-03 0.0000000e+00 
9.9995680e+00 -2.5323339e-04 0.0000000e+00 
1.0002331e+01 -2.5722312e-03 0.0000000e+00 
9.9996071e+00 -1.5554571e-04 0.0000000e+00 
1.0004083e+01 -2.3161057e-23 0.0000000e+00 
1.0000121e+01 -2.3165194e-03 0.0000000e+00 
9.9995241e+00 -3.2864019e-04 0.0000000e+00 
1.0003899e+01 -1.1836524e-03 0.0000000e+00 
9.9993820e+00 -1.0570971e-03 0.0000000e+00 
1.0002876e+01 -2.4201972e-03 0.0000000e+00 
9.9994307e+00 -1.4465642e-03 0.0000000e+00 
9.9998131e+00 -2.1324118e-03 0.0000000e+00 
9.9993782e+00 -7.4634596e-04 0.0000000e+00 
9.9994688e+00 -4.1083060e-04 0.0000000e+00 
1.0003437e+01 -2.1773377e-03 0.0000000e+00 
9.9995527e+00 -1.9258168e-03 0.0000000e+00 
1.0004349e+01 -7.0011022e-04 0.0000000e+00 
9.9994001e+00 -5.0314178e-04 0.0000000e+00 
9.9992847e+00 -1.2514847e-03 0.0000000e+00 
9.9992847e+00 -8.9023914e-04 0.0000000e+00 
1.0001026e+01 -3.0268382e-03 0.0000000e+00 
1.0001548e+01 -3.0974271e-03 0.0000000e+00 
1.0000556e+01 -2.8968535e-03 0.0000000e+00 
1.0004002e+01 -1.8347390e-03 0.0000000e+00 
1.0002115e+01 -3.0967398e-03 0.0000000e+00 
9.9995317e+00 -1.8849625e-04 0.0000000e+00 
1.0000141e+01 -2.7190649e-03 0.0000000e+00 
9.9993382e+00 -1.7048566e-03 0.0000000e+00 
9.9993162e+00 -6.0786825e-04 0.0000000e+00 
9.9994879e+00 -2.5021861e-04 0.0000000e+00 
1.0002723e+01 -3.0128167e-03 0.0000000e+00 
9.9997816e+00 -2.5044801e-03 0.0000000e+00 
9.9995508e+00 -1.2400976e-04 0.0000000e+00 
1.0004769e+01 -2.3161057e-23 0.0000000e+00 
9.9994316e+00 -3.1720512e-04 0.0000000e+00 
1.0004555e+01 -1.3855000e-03 0.0000000e+00 
1.0003360e+01 -2.8338891e-03 0.0000000e+00 
9.9991732e+00 -1.0561491e-03 0.0000000e+00 
9.9994783e+00 -2.2634089e-03 0.0000000e+00 
9.9991693e+00 -1.4768296e-03 0.0000000e+00 
9.9992151e+00 -7.2761596e-04 0.0000000e+00 
9.9993610e+00 -3.9199204e-04 0.0000000e+00 
1.0004016e+01 -2.5488210e-03 0.0000000e+00 
9.9992304e+00 -2.0053217e-03 0.0000000e+00 
9.9992752e+00 -4.7647004e-04 0.0000000e+00 
1.0005081e+01 -8.1930571e-04 0.0000000e+00 
1.0001200e+01 -3.5469078e-03 0.0000000e+00 
1.0000650e+01 -3.3958384e-03 0.0000000e+00 
1.0001809e+01 -3.6284146e-03 0.0000000e+00 
1.0000165e+01 -3.1887332e-03 0.0000000e+00 
9.9990416e+00 -1.2481890e-03 0.0000000e+00 
9.9990950e+00 -8.6535630e-04 0.0000000e+00 
1.0002473e+01 -3.6265063e-03 0.0000000e+00 
1.0004676e+01 -2.1472436e-03 0.0000000e+00 
9.9994650e+00 -1.7181956e-04 0.0000000e+00 
9.9997463e+00 -2.9384342e-03 0.0000000e+00 
9.9994087e+00 -2.3164088e-04 0.0000000e+00 
9.9990339e+00 -1.7387202e-03 0.0000000e+00 
9.9991713e+00 -5.7272561e-04 0.0000000e+00 
1.0003182e+01 -3.5272408e-03 0.0000000e+00 
9.9993925e+00 -2.6569746e-03 0.0000000e+00 
9.9993401e+00 -2.8963605e-04 0.0000000e+00 
9.9995041e+00 -9.9795936e-05 0.0000000e+00 
1.0005573e+01 0.0000000e+00 0.0000000e+00 
1.0003927e+01 -3.3169091e-03 0.0000000e+00 
1.0005323e+01 -1.6211283e-03 0.0000000e+00 
9.9989529e+00 -1.0245062e-03 0.0000000e+00 
9.9991026e+00 -2.3554098e-03 0.0000000e+00 
9.9992542e+00 -3.5464481e-04 0.0000000e+00 
9.9988871e+00 -1.4711235e-03 0.0000000e+00 
9.9990473e+00 -6.8314286e-04 0.0000000e+00 
1.0004694e+01 -2.9825433e-03 0.0000000e+00 
1.0000760e+01 -3.9785365e-03 0.0000000e+00 
1.0001402e+01 -4.1542808e-03 0.0000000e+00 
1.0000194e+01 -3.7371155e-03 0.0000000e+00 
9.9988747e+00 -2.0436561e-03 0.0000000e+00 
1.0002114e+01 -4.2485585e-03 0.0000000e+00 
9.9991503e+00 -4.2843109e-04 0.0000000e+00 
9.9994507e+00 -1.1877195e-04 0.0000000e+00 
1.0005939e+01 -9.5844513e-04 0.0000000e+00 
9.9997044e+00 -3.4450069e-03 0.0000000e+00 
9.9993992e+00 -1.5613550e-04 0.0000000e+00 
1.0002891e+01 -4.2452165e-03 0.0000000e+00 
9.9987850e+00 -1.2090158e-03 0.0000000e+00 
9.9988985e+00 -8.1045949e-04 0.0000000e+00 
9.9992914e+00 -3.1162654e-03 0.0000000e+00 
1.0005466e+01 -2.5120827e-03 0.0000000e+00 
9.9993324e+00 -1.9772006e-04 0.0000000e+00 
9.9987040e+00 -1.7304891e-03 0.0000000e+00 
1.0003720e+01 -4.1280002e-03 0.0000000e+00 
9.9990253e+00 -5.1281170e-04 0.0000000e+00 
9.9989538e+00 -2.7638080e-03 0.0000000e+00 
9.9992495e+00 -2.4432826e-04 0.0000000e+00 
9.9994707e+00 -6.8480294e-05 0.0000000e+00 
1.0006514e+01 0.0000000e+00 0.0000000e+00 
1.0004591e+01 -3.8809448e-03 0.0000000e+00 
1.0006222e+01 -1.8961964e-03 0.0000000e+00 
9.9987230e+00 -9.5783506e-04 0.0000000e+00 
9.9986877e+00 -2.3992120e-03 0.0000000e+00 
9.9991484e+00 -2.9696774e-04 0.0000000e+00 
9.9985867e+00 -1.4234693e-03 0.0000000e+00 
9.9988756e+00 -6.0987502e-04 0.0000000e+00 
1.0000890e+01 -4.6592844e-03 0.0000000e+00 
1.0000228e+01 -4.3777442e-03 0.0000000e+00 
1.0001640e+01 -4.8638512e-03 0.0000000e+00 
9.9996548e+00 -4.0367306e-03 0.0000000e+00 
9.9994030e+00 -9.2551061e-05 0.0000000e+00 
1.0005487e+01 -3.4889563e-03 0.0000000e+00 
1.0002473e+01 -4.9730092e-03 0.0000000e+00 
9.9984894e+00 -2.0327333e-03 0.0000000e+00 
9.9991732e+00 -3.6526681e-03 0.0000000e+00 
9.9990253e+00 -3.5693991e-04 0.0000000e+00 
9.9993362e+00 -1.1767990e-04 0.0000000e+00 
1.0006942e+01 -1.1208586e-03 0.0000000e+00 
1.0003381e+01 -4.9679223e-03 0.0000000e+00 
9.9987783e+00 -3.2406584e-03 0.0000000e+00 
9.9985170e+00 -1.1289311e-03 0.0000000e+00 
9.9986982e+00 -7.2202820e-04 0.0000000e+00 
9.9992590e+00 -1.4705428e-04 0.0000000e+00 
1.0006389e+01 -2.9380121e-03 0.0000000e+00 
1.0004351e+01 -4.8296466e-03 0.0000000e+00 
9.9983530e+00 -1.6732004e-03 0.0000000e+00 
9.9988794e+00 -4.2573156e-04 0.0000000e+00 
9.9984684e+00 -2.8142296e-03 0.0000000e+00 
9.9991627e+00 -1.8003333e-04 0.0000000e+00 
9.9994488e+00 -3.2425523e-05 0.0000000e+00 
1.0007614e+01 0.0000000e+00 0.0000000e+00 
1.0005368e+01 -4.5395955e-03 0.0000000e+00 
1.0007274e+01 -2.2172788e-03 0.0000000e+00 
9.9982376e+00 -2.3853793e-03 0.0000000e+00 
1.0000268e+01 -5.1264246e-03 0.0000000e+00 
9.9984894e+00 -8.5205672e-04 0.0000000e+00 
1.0001042e+01 -5.4548196e-03 0.0000000e+00 
9.9990463e+00 -2.1745765e-04 0.0000000e+00 
9.9995985e+00 -4.7282483e-03 0.0000000e+00 
9.9982729e+00 -1.3280036e-03 0.0000000e+00 
1.0001920e+01 -5.6929970e-03 0.0000000e+00 
9.9987049e+00 -5.0504861e-04 0.0000000e+00 
9.9994097e+00 -3.8343929e-05 0.0000000e+00 
9.9990339e+00 -4.2794896e-03 0.0000000e+00 
9.9993534e+00 -5.0378239e-05 0.0000000e+00 
1.0006415e+01 -4.0802113e-03 0.0000000e+00 
1.0002893e+01 -5.8194306e-03 0.0000000e+00 
9.9985733e+00 -3.7978152e-03 0.0000000e+00 
9.9980793e+00 -1.9644287e-03 0.0000000e+00 
9.9992819e+00 -6.3726948e-05 0.0000000e+00 
9.9989061e+00 -2.6025088e-04 0.0000000e+00 
1.0003954e+01 -5.8121621e-03 0.0000000e+00 
1.0008114e+01 -1.3104121e-03 0.0000000e+00 
9.9982109e+00 -3.2990412e-03 0.0000000e+00 
9.9991922e+00 -7.8708326e-05 0.0000000e+00 
9.9982433e+00 -1.0031944e-03 0.0000000e+00 
9.9984989e+00 -5.9686002e-04 0.0000000e+00 
1.0007469e+01 -3.4352033e-03 0.0000000e+00 
1.0005088e+01 -5.6491187e-03 0.0000000e+00 
9.9979868e+00 -1.5600113e-03 0.0000000e+00 
9.9979420e+00 -2.7972164e-03 0.0000000e+00 
9.9987392e+00 -3.0947058e-04 0.0000000e+00 
9.9990835e+00 -9.5625233e-05 0.0000000e+00 
9.9994440e+00 -5.3492812e-07 0.0000000e+00 
1.0008900e+01 0.0000000e+00 0.0000000e+00 
1.0000316e+01 -6.0016261e-03 0.0000000e+00 
9.9995317e+00 -5.5366773e-03 0.0000000e+00 
1.0006278e+01 -5.3086756e-03 0.0000000e+00 
1.0001221e+01 -6.3846856e-03 0.0000000e+00 
9.9988728e+00 -5.0122910e-03 0.0000000e+00 
1.0008502e+01 -2.5920067e-03 0.0000000e+00 
9.9977579e+00 -2.3044182e-03 0.0000000e+00 
9.9989519e+00 -1.1489119e-04 0.0000000e+00 
9.9993763e+00 3.7265961e-06 0.0000000e+00 
1.0002248e+01 -6.6619930e-03 0.0000000e+00 
9.9982557e+00 -7.0344767e-04 0.0000000e+00 
9.9983339e+00 -4.4491435e-03 0.0000000e+00 
9.9979525e+00 -1.1792056e-03 0.0000000e+00 
9.9985399e+00 -3.6633603e-04 0.0000000e+00 
9.9993134e+00 5.0563594e-06 0.0000000e+00 
1.0003386e+01 -6.8084146e-03 0.0000000e+00 
1.0007501e+01 -4.7704247e-03 0.0000000e+00 
9.9979105e+00 -3.8657335e-03 0.0000000e+00 
9.9992332e+00 6.3453699e-06 0.0000000e+00 
9.9976501e+00 -1.8307428e-03 0.0000000e+00 
9.9987946e+00 -1.3698016e-04 0.0000000e+00 
1.0004626e+01 -6.7983591e-03 0.0000000e+00 
1.0009485e+01 -1.5315890e-03 0.0000000e+00 
9.9975958e+00 -3.2785258e-03 0.0000000e+00 
9.9991341e+00 7.8149387e-06 0.0000000e+00 
9.9979687e+00 -8.2746486e-04 0.0000000e+00 
9.9983053e+00 -4.3225870e-04 0.0000000e+00 
1.0008732e+01 -4.0154601e-03 0.0000000e+00 
1.0005951e+01 -6.6061220e-03 0.0000000e+00 
9.9973812e+00 -2.7016643e-03 0.0000000e+00 
9.9976120e+00 -1.3844814e-03 0.0000000e+00 
9.9986067e+00 -1.6243727e-04 0.0000000e+00 
9.9990129e+00 9.5006199e-06 0.0000000e+00 
9.9994555e+00 -6.4820359e-03 0.0000000e+00 
1.0000372e+01 -7.0249308e-03 0.0000000e+00 
9.9986839e+00 -5.8692801e-03 0.0000000e+00 
1.0001431e+01 -7.4717058e-03 0.0000000e+00 
9.9994116e+00 4.4842265e-05 0.0000000e+00 
9.9980536e+00 -5.2108723e-03 0.0000000e+00 
1.0007341e+01 -6.2065613e-03 0.0000000e+00 
9.9994488e+00 3.2260854e-05 0.0000000e+00 
1.0010403e+01 0.0000000e+00 0.0000000e+00 
9.9993553e+00 5.9206996e-05 0.0000000e+00 
1.0002632e+01 -7.7944952e-03 0.0000000e+00 
9.9972563e+00 -2.1469654e-03 0.0000000e+00 
1.0009939e+01 -3.0292263e-03 0.0000000e+00 
9.9975576e+00 -4.5284573e-03 0.0000000e+00 
9.9988680e+00 1.1445977e-05 0.0000000e+00 
9.9980288e+00 -5.0887768e-04 0.0000000e+00 
9.9992838e+00 7.4967320e-05 0.0000000e+00 
9.9976320e+00 -9.7200391e-04 0.0000000e+00 
9.9983854e+00 -1.9189224e-04 0.0000000e+00 
1.0003963e+01 -7.9639591e-03 0.0000000e+00 
9.9971905e+00 -3.8413454e-03 0.0000000e+00 
1.0008771e+01 -5.5759805e-03 0.0000000e+00 
9.9991951e+00 9.2677234e-05 0.0000000e+00 
9.9972124e+00 -1.6241531e-03 0.0000000e+00 
1.0005413e+01 -7.9502864e-03 0.0000000e+00 
9.9986954e+00 1.3702313e-05 0.0000000e+00 
9.9969387e+00 -3.1661133e-03 0.0000000e+00 
1.0011086e+01 -1.7895814e-03 0.0000000e+00 
9.9990864e+00 1.1270941e-04 0.0000000e+00 
9.9977036e+00 -5.9810170e-04 0.0000000e+00 
9.9981232e+00 -2.2607502e-04 0.0000000e+00 
1.0006962e+01 -7.7235615e-03 0.0000000e+00 
1.0010208e+01 -4.6924641e-03 0.0000000e+00 
9.9993668e+00 -7.5877430e-03 0.0000000e+00 
9.9984636e+00 -6.8717720e-03 0.0000000e+00 
9.9967937e+00 -2.5165998e-03 0.0000000e+00 
1.0000440e+01 -8.2215676e-03 0.0000000e+00 
9.9972363e+00 -1.1406756e-03 0.0000000e+00 
9.9989557e+00 1.3555896e-04 0.0000000e+00 
9.9977255e+00 -6.1020097e-03 0.0000000e+00 
9.9984894e+00 1.6329135e-05 0.0000000e+00 