# vtk DataFile Version 4.0
vtk output
ASCII
DATASET UNSTRUCTURED_GRID
POINTS 3806 float
2.0000000e+01 1.0000000e+01 0.0000000e+00 
1.9750000e+01 1.0000000e+01 0.0000000e+00 
2.0000000e+01 9.7500000e+00 0.0000000e+00 
1.9625000e+01 9.7427902e+00 0.0000000e+00 
2.0000000e+01 9.5000000e+00 0.0000000e+00 
1.9500000e+01 1.0000000e+01 0.0000000e+00 
1.9750000e+01 9.5262804e+00 0.0000000e+00 
1.9375000e+01 9.7427902e+00 0.0000000e+00 
1.9500000e+01 9.5262804e+00 0.0000000e+00 
1.9250000e+01 1.0000000e+01 0.0000000e+00 
2.0000000e+01 9.2500000e+00 0.0000000e+00 
1.9645800e+01 9.2998104e+00 0.0000000e+00 
1.9250000e+01 9.5262804e+00 0.0000000e+00 
1.9125000e+01 9.7427902e+00 0.0000000e+00 
1.9375000e+01 9.3097696e+00 0.0000000e+00 
1.9750000e+01 9.0932703e+00 0.0000000e+00 
2.0000000e+01 9.0000000e+00 0.0000000e+00 
1.9000000e+01 1.0000000e+01 0.0000000e+00 
1.9500000e+01 9.0932703e+00 0.0000000e+00 
1.9000000e+01 9.5262804e+00 0.0000000e+00 
1.9125000e+01 9.3097696e+00 0.0000000e+00 
1.8875000e+01 9.7427902e+00 0.0000000e+00 
1.9696400e+01 8.8762598e+00 0.0000000e+00 
1.9250000e+01 9.0932703e+00 0.0000000e+00 
2.0000000e+01 8.7500000e+00 0.0000000e+00 
1.8750000e+01 1.0000000e+01 0.0000000e+00 
1.9375000e+01 8.8767595e+00 0.0000000e+00 
1.8875000e+01 9.3097696e+00 0.0000000e+00 
1.8750000e+01 9.5262804e+00 0.0000000e+00 
1.9000000e+01 9.0932703e+00 0.0000000e+00 
1.9750000e+01 8.6602497e+00 0.0000000e+00 
1.8625000e+01 9.7427902e+00 0.0000000e+00 
1.9125000e+01 8.8767595e+00 0.0000000e+00 
1.9500000e+01 8.6602497e+00 0.0000000e+00 
2.0000000e+01 8.5000000e+00 0.0000000e+00 
1.8500000e+01 1.0000000e+01 0.0000000e+00 
1.9250000e+01 8.6602497e+00 0.0000000e+00 
1.8625000e+01 9.3097696e+00 0.0000000e+00 
1.8750000e+01 9.0932703e+00 0.0000000e+00 
1.8500000e+01 9.5262804e+00 0.0000000e+00 
1.9645800e+01 8.4531202e+00 0.0000000e+00 
1.8875000e+01 8.8767595e+00 0.0000000e+00 
1.8375000e+01 9.7427902e+00 0.0000000e+00 
1.9000000e+01 8.6602497e+00 0.0000000e+00 
1.9375000e+01 8.4437504e+00 0.0000000e+00 
2.0000000e+01 8.2500000e+00 0.0000000e+00 
1.8250000e+01 1.0000000e+01 0.0000000e+00 
1.8500000e+01 9.0932703e+00 0.0000000e+00 
1.8375000e+01 9.3097696e+00 0.0000000e+00 
1.8625000e+01 8.8767595e+00 0.0000000e+00 
1.9125000e+01 8.4437504e+00 0.0000000e+00 
1.9750000e+01 8.2272396e+00 0.0000000e+00 
1.8250000e+01 9.5262804e+00 0.0000000e+00 
1.8750000e+01 8.6602497e+00 0.0000000e+00 
1.9500000e+01 8.2272396e+00 0.0000000e+00 
1.8125000e+01 9.7427902e+00 0.0000000e+00 
1.8875000e+01 8.4437504e+00 0.0000000e+00 
1.9250000e+01 8.2272396e+00 0.0000000e+00 
1.8250000e+01 9.0932703e+00 0.0000000e+00 
1.8375000e+01 8.8767595e+00 0.0000000e+00 
1.8125000e+01 9.3097696e+00 0.0000000e+00 
2.0000000e+01 8.0000000e+00 0.0000000e+00 
1.8000000e+01 1.0000000e+01 0.0000000e+00 
1.8500000e+01 8.6602497e+00 0.0000000e+00 
1.9625000e+01 8.0107298e+00 0.0000000e+00 
1.9000000e+01 8.2272396e+00 0.0000000e+00 
1.8000000e+01 9.5262804e+00 0.0000000e+00 
1.8625000e+01 8.4437504e+00 0.0000000e+00 
1.9375000e+01 8.0107298e+00 0.0000000e+00 
1.7875000e+01 9.7834902e+00 0.0000000e+00 
1.8750000e+01 8.2272396e+00 0.0000000e+00 
1.9125000e+01 8.0107298e+00 0.0000000e+00 
1.8125000e+01 8.8767595e+00 0.0000000e+00 
1.8000000e+01 9.0932703e+00 0.0000000e+00 
1.8250000e+01 8.6602497e+00 0.0000000e+00 
1.9750000e+01 7.7942300e+00 0.0000000e+00 
1.7875000e+01 9.3097696e+00 0.0000000e+00 
2.0000000e+01 7.7500000e+00 0.0000000e+00 
1.7750000e+01 1.0000000e+01 0.0000000e+00 
1.8375000e+01 8.4437504e+00 0.0000000e+00 
1.9500000e+01 7.7942300e+00 0.0000000e+00 
1.8875000e+01 8.0107298e+00 0.0000000e+00 
1.7750000e+01 9.5262804e+00 0.0000000e+00 
1.8500000e+01 8.2272396e+00 0.0000000e+00 
1.9250000e+01 7.7942300e+00 0.0000000e+00 
1.7625000e+01 9.7834902e+00 0.0000000e+00 
1.7875000e+01 8.8767595e+00 0.0000000e+00 
1.8000000e+01 8.6602497e+00 0.0000000e+00 
1.8625000e+01 8.0107298e+00 0.0000000e+00 
1.9000000e+01 7.7942300e+00 0.0000000e+00 
1.7750000e+01 9.0932703e+00 0.0000000e+00 
1.8125000e+01 8.4437504e+00 0.0000000e+00 
1.9645800e+01 7.5647702e+00 0.0000000e+00 
1.7625000e+01 9.3097696e+00 0.0000000e+00 
1.8250000e+01 8.2272396e+00 0.0000000e+00 
2.0000000e+01 7.5000000e+00 0.0000000e+00 
1.7500000e+01 1.0000000e+01 0.0000000e+00 
1.9375000e+01 7.5777202e+00 0.0000000e+00 
1.8750000e+01 7.7942300e+00 0.0000000e+00 
1.7500000e+01 9.5262804e+00 0.0000000e+00 
1.8375000e+01 8.0107298e+00 0.0000000e+00 
1.9125000e+01 7.5777202e+00 0.0000000e+00 
1.7750000e+01 8.6602497e+00 0.0000000e+00 
1.7625000e+01 8.8767595e+00 0.0000000e+00 
1.7875000e+01 8.4437504e+00 0.0000000e+00 
1.7375000e+01 9.7427902e+00 0.0000000e+00 
1.9768499e+01 7.3630099e+00 0.0000000e+00 
1.7500000e+01 9.0932703e+00 0.0000000e+00 
1.8500000e+01 7.7942300e+00 0.0000000e+00 
1.8875000e+01 7.5777202e+00 0.0000000e+00 
1.8000000e+01 8.2272396e+00 0.0000000e+00 
1.9500000e+01 7.3612199e+00 0.0000000e+00 
1.7375000e+01 9.3097696e+00 0.0000000e+00 
1.8125000e+01 8.0107298e+00 0.0000000e+00 
1.9250000e+01 7.3612199e+00 0.0000000e+00 
2.0000000e+01 7.2500000e+00 0.0000000e+00 
1.7250000e+01 1.0000000e+01 0.0000000e+00 
1.8625000e+01 7.5777202e+00 0.0000000e+00 
1.7250000e+01 9.5262804e+00 0.0000000e+00 
1.8250000e+01 7.7942300e+00 0.0000000e+00 
1.9000000e+01 7.3612199e+00 0.0000000e+00 
1.7500000e+01 8.6602497e+00 0.0000000e+00 
1.7625000e+01 8.4437504e+00 0.0000000e+00 
1.7375000e+01 8.8767595e+00 0.0000000e+00 
1.7750000e+01 8.2272396e+00 0.0000000e+00 
1.9696400e+01 7.1390800e+00 0.0000000e+00 
1.7125000e+01 9.7427902e+00 0.0000000e+00 
1.7250000e+01 9.0932703e+00 0.0000000e+00 
1.7875000e+01 8.0107298e+00 0.0000000e+00 
1.8375000e+01 7.5777202e+00 0.0000000e+00 
1.8750000e+01 7.3612199e+00 0.0000000e+00 
1.9375000e+01 7.1447101e+00 0.0000000e+00 
1.7125000e+01 9.3097696e+00 0.0000000e+00 
1.8000000e+01 7.7942300e+00 0.0000000e+00 
1.9125000e+01 7.1447101e+00 0.0000000e+00 
2.0000000e+01 7.0000000e+00 0.0000000e+00 
1.7000000e+01 1.0000000e+01 0.0000000e+00 
1.8500000e+01 7.3612199e+00 0.0000000e+00 
1.7000000e+01 9.5262804e+00 0.0000000e+00 
1.7375000e+01 8.4437504e+00 0.0000000e+00 
1.7250000e+01 8.6602497e+00 0.0000000e+00 
1.8125000e+01 7.5777202e+00 0.0000000e+00 
1.7500000e+01 8.2272396e+00 0.0000000e+00 
1.8875000e+01 7.1447101e+00 0.0000000e+00 
1.9750000e+01 6.9281998e+00 0.0000000e+00 
1.7125000e+01 8.8767595e+00 0.0000000e+00 
1.7625000e+01 8.0107298e+00 0.0000000e+00 
1.9500000e+01 6.9281998e+00 0.0000000e+00 
1.7000000e+01 9.0932703e+00 0.0000000e+00 
1.6875000e+01 9.7427902e+00 0.0000000e+00 
1.7750000e+01 7.7942300e+00 0.0000000e+00 
1.9250000e+01 6.9281998e+00 0.0000000e+00 
1.8250000e+01 7.3612199e+00 0.0000000e+00 
1.8625000e+01 7.1447101e+00 0.0000000e+00 
1.6875000e+01 9.3097696e+00 0.0000000e+00 
1.7875000e+01 7.5777202e+00 0.0000000e+00 
1.9000000e+01 6.9281998e+00 0.0000000e+00 
2.0000000e+01 6.7500000e+00 0.0000000e+00 
1.6750000e+01 1.0000000e+01 0.0000000e+00 
1.7125000e+01 8.4437504e+00 0.0000000e+00 
1.7250000e+01 8.2272396e+00 0.0000000e+00 
1.6750000e+01 9.5262804e+00 0.0000000e+00 
1.8375000e+01 7.1447101e+00 0.0000000e+00 
1.7000000e+01 8.6602497e+00 0.0000000e+00 
1.7375000e+01 8.0107298e+00 0.0000000e+00 
1.9645800e+01 6.7180800e+00 0.0000000e+00 
1.8000000e+01 7.3612199e+00 0.0000000e+00 
1.8750000e+01 6.9281998e+00 0.0000000e+00 
1.6875000e+01 8.8767595e+00 0.0000000e+00 
1.7500000e+01 7.7942300e+00 0.0000000e+00 
1.9375000e+01 6.7117000e+00 0.0000000e+00 
1.6750000e+01 9.0932703e+00 0.0000000e+00 
1.6625000e+01 9.7427902e+00 0.0000000e+00 
1.7625000e+01 7.5777202e+00 0.0000000e+00 
1.9125000e+01 6.7117000e+00 0.0000000e+00 
1.8125000e+01 7.1447101e+00 0.0000000e+00 
1.8500000e+01 6.9281998e+00 0.0000000e+00 
1.6625000e+01 9.3097696e+00 0.0000000e+00 
1.7750000e+01 7.3612199e+00 0.0000000e+00 
1.8875000e+01 6.7117000e+00 0.0000000e+00 
1.7000000e+01 8.2272396e+00 0.0000000e+00 
1.6875000e+01 8.4437504e+00 0.0000000e+00 
1.7125000e+01 8.0107298e+00 0.0000000e+00 
2.0000000e+01 6.5000000e+00 0.0000000e+00 
1.6500000e+01 1.0000000e+01 0.0000000e+00 
1.9750000e+01 6.4951901e+00 0.0000000e+00 
1.6750000e+01 8.6602497e+00 0.0000000e+00 
1.7250000e+01 7.7942300e+00 0.0000000e+00 
1.6500000e+01 9.5262804e+00 0.0000000e+00 
1.8250000e+01 6.9281998e+00 0.0000000e+00 
1.9500000e+01 6.4951901e+00 0.0000000e+00 
1.6625000e+01 8.8767595e+00 0.0000000e+00 
1.7875000e+01 7.1447101e+00 0.0000000e+00 
1.8625000e+01 6.7117000e+00 0.0000000e+00 
1.7375000e+01 7.5777202e+00 0.0000000e+00 
1.9250000e+01 6.4951901e+00 0.0000000e+00 
1.6500000e+01 9.0932703e+00 0.0000000e+00 
1.6375000e+01 9.7427902e+00 0.0000000e+00 
1.7500000e+01 7.3612199e+00 0.0000000e+00 
1.9000000e+01 6.4951901e+00 0.0000000e+00 
1.8000000e+01 6.9281998e+00 0.0000000e+00 
1.8375000e+01 6.7117000e+00 0.0000000e+00 
1.6375000e+01 9.3097696e+00 0.0000000e+00 
1.6750000e+01 8.2272396e+00 0.0000000e+00 
1.6875000e+01 8.0107298e+00 0.0000000e+00 
1.7625000e+01 7.1447101e+00 0.0000000e+00 
1.6625000e+01 8.4437504e+00 0.0000000e+00 
1.8750000e+01 6.4951901e+00 0.0000000e+00 
1.7000000e+01 7.7942300e+00 0.0000000e+00 
1.9625000e+01 6.2786798e+00 0.0000000e+00 
1.6500000e+01 8.6602497e+00 0.0000000e+00 
2.0000000e+01 6.2500000e+00 0.0000000e+00 
1.6250000e+01 1.0000000e+01 0.0000000e+00 
1.7125000e+01 7.5777202e+00 0.0000000e+00 
1.9375000e+01 6.2786798e+00 0.0000000e+00 
1.6250000e+01 9.5262804e+00 0.0000000e+00 
1.8125000e+01 6.7117000e+00 0.0000000e+00 
1.6375000e+01 8.8767595e+00 0.0000000e+00 
1.7750000e+01 6.9281998e+00 0.0000000e+00 
1.7250000e+01 7.3612199e+00 0.0000000e+00 
1.8500000e+01 6.4951901e+00 0.0000000e+00 
1.9125000e+01 6.2786798e+00 0.0000000e+00 
1.6250000e+01 9.0932703e+00 0.0000000e+00 
1.7375000e+01 7.1447101e+00 0.0000000e+00 
1.6125000e+01 9.7427902e+00 0.0000000e+00 
[...]
POINT_DATA 3806
FIELD FieldData 2
VELOCITY 3 3806  float
9.9991426e+00 1.9387046e-25 0.0000000e+00 
9.9994450e+00 -1.0339758e-25 0.0000000e+00 
9.9990301e+00 -2.9971960e-04 0.0000000e+00 
9.9994574e+00 -2.9403353e-04 0.0000000e+00 
9.9991426e+00 -6.0332107e-04 0.0000000e+00 
9.9997339e+00 1.0856746e-24 0.0000000e+00 
9.9994221e+00 -5.3886831e-04 0.0000000e+00 
9.9997349e+00 -2.9475015e-04 0.0000000e+00 
9.9996939e+00 -5.3004932e-04 0.0000000e+00 
1.0000025e+01 1.0856746e-24 0.0000000e+00 
9.9991484e+00 -8.6622726e-04 0.0000000e+00 
9.9995136e+00 -7.6857908e-04 0.0000000e+00 
9.9999666e+00 -5.3819508e-04 0.0000000e+00 
1.0000016e+01 -3.0520291e-04 0.0000000e+00 
9.9997873e+00 -7.5990340e-04 0.0000000e+00 
9.9994364e+00 -9.8263402e-04 0.0000000e+00 
9.9992352e+00 -1.1254178e-03 0.0000000e+00 
1.0000327e+01 2.5849394e-26 0.0000000e+00 
9.9996643e+00 -9.6569821e-04 0.0000000e+00 
1.0000248e+01 -5.6558539e-04 0.0000000e+00 
1.0000042e+01 -7.8483066e-04 0.0000000e+00 
1.0000312e+01 -3.2635173e-04 0.0000000e+00 
9.9995298e+00 -1.1570392e-03 0.0000000e+00 
9.9998903e+00 -9.7797881e-04 0.0000000e+00 
9.9992828e+00 -1.3528275e-03 0.0000000e+00 
1.0000649e+01 2.5849394e-26 0.0000000e+00 
9.9997864e+00 -1.1517252e-03 0.0000000e+00 
1.0000308e+01 -8.3738321e-04 0.0000000e+00 
1.0000547e+01 -6.1363354e-04 0.0000000e+00 
1.0000122e+01 -1.0250831e-03 0.0000000e+00 
9.9994936e+00 -1.3376845e-03 0.0000000e+00 
1.0000634e+01 -3.5927034e-04 0.0000000e+00 
9.9999857e+00 -1.1852682e-03 0.0000000e+00 
9.9996586e+00 -1.3071829e-03 0.0000000e+00 
9.9994450e+00 -1.5062186e-03 0.0000000e+00 
1.0001004e+01 2.5849394e-26 0.0000000e+00 
9.9998178e+00 -1.3176216e-03 0.0000000e+00 
1.0000596e+01 -9.2115533e-04 0.0000000e+00 
1.0000366e+01 -1.1095834e-03 0.0000000e+00 
1.0000877e+01 -6.8545889e-04 0.0000000e+00 
9.9996662e+00 -1.4416027e-03 0.0000000e+00 
1.0000191e+01 -1.2602413e-03 0.0000000e+00 
1.0000993e+01 -4.0529977e-04 0.0000000e+00 
9.9999762e+00 -1.3745858e-03 0.0000000e+00 
9.9998150e+00 -1.4336503e-03 0.0000000e+00 
9.9994307e+00 -1.6818793e-03 0.0000000e+00 
1.0001404e+01 -3.1019273e-25 0.0000000e+00 
1.0000633e+01 -1.2362541e-03 0.0000000e+00 
1.0000916e+01 -1.0403931e-03 0.0000000e+00 
1.0000409e+01 -1.3821520e-03 0.0000000e+00 
9.9999466e+00 -1.4664165e-03 0.0000000e+00 
9.9995508e+00 -1.5755424e-03 0.0000000e+00 
1.0001249e+01 -7.8468653e-04 0.0000000e+00 
1.0000139e+01 -1.4815206e-03 0.0000000e+00 
9.9996223e+00 -1.5241159e-03 0.0000000e+00 
1.0001408e+01 -4.6403031e-04 0.0000000e+00 
1.0000075e+01 -1.5500278e-03 0.0000000e+00 
9.9996853e+00 -1.5247624e-03 0.0000000e+00 
1.0000933e+01 -1.4120730e-03 0.0000000e+00 
1.0000649e+01 -1.5577817e-03 0.0000000e+00 
1.0001280e+01 -1.2013839e-03 0.0000000e+00 
9.9997683e+00 -1.7392931e-03 0.0000000e+00 
1.0001860e+01 -3.1019273e-25 0.0000000e+00 
1.0000313e+01 -1.6449813e-03 0.0000000e+00 
9.9998741e+00 -1.6117246e-03 0.0000000e+00 
9.9997435e+00 -1.5793425e-03 0.0000000e+00 
1.0001680e+01 -9.2117646e-04 0.0000000e+00 
1.0000207e+01 -1.6912869e-03 0.0000000e+00 
9.9999542e+00 -1.5821436e-03 0.0000000e+00 
1.0001904e+01 -4.6110639e-04 0.0000000e+00 
9.9997978e+00 -1.6909898e-03 0.0000000e+00 
1.0000025e+01 -1.6006315e-03 0.0000000e+00 
1.0000920e+01 -1.7957506e-03 0.0000000e+00 
1.0001276e+01 -1.6442316e-03 0.0000000e+00 
1.0000505e+01 -1.8736196e-03 0.0000000e+00 
9.9996052e+00 -1.6410406e-03 0.0000000e+00 
1.0001702e+01 -1.4098361e-03 0.0000000e+00 
9.9996099e+00 -1.7885657e-03 0.0000000e+00 
1.0002422e+01 0.0000000e+00 0.0000000e+00 
1.0000347e+01 -1.8983441e-03 0.0000000e+00 
9.9995193e+00 -1.5935336e-03 0.0000000e+00 
1.0000081e+01 -1.6762260e-03 0.0000000e+00 
1.0002178e+01 -1.0837006e-03 0.0000000e+00 
9.9998512e+00 -1.8671267e-03 0.0000000e+00 
9.9994459e+00 -1.5842547e-03 0.0000000e+00 
1.0002474e+01 -5.5866007e-04 0.0000000e+00 
1.0001234e+01 -2.1075157e-03 0.0000000e+00 
1.0000725e+01 -2.1788129e-03 0.0000000e+00 
1.0000127e+01 -1.8139399e-03 0.0000000e+00 
9.9993782e+00 -1.6230268e-03 0.0000000e+00 
1.0001678e+01 -1.9441292e-03 0.0000000e+00 
1.0000499e+01 -2.1820241e-03 0.0000000e+00 
1.0000175e+01 -1.6328342e-03 0.0000000e+00 
1.0002208e+01 -1.6789892e-03 0.0000000e+00 
9.9999046e+00 -2.1178012e-03 0.0000000e+00 
1.0000081e+01 -1.8347008e-03 0.0000000e+00 
1.0003080e+01 -1.0339758e-25 0.0000000e+00 
1.0000212e+01 -1.5693029e-03 0.0000000e+00 
9.9993038e+00 -1.7197774e-03 0.0000000e+00 
1.0002769e+01 -1.2876637e-03 0.0000000e+00 
1.0000163e+01 -2.0220708e-03 0.0000000e+00 
1.0000218e+01 -1.5657479e-03 0.0000000e+00 
1.0000979e+01 -2.5749300e-03 0.0000000e+00 
1.0001603e+01 -2.5069711e-03 0.0000000e+00 
1.0000670e+01 -2.5562241e-03 0.0000000e+00 
1.0003129e+01 -7.9105253e-04 0.0000000e+00 
9.9996405e+00 -1.6230330e-03 0.0000000e+00 
1.0002158e+01 -2.3257178e-03 0.0000000e+00 
9.9992170e+00 -1.8819065e-03 0.0000000e+00 
1.0000200e+01 -1.6180405e-03 0.0000000e+00 
9.9999638e+00 -2.4561216e-03 0.0000000e+00 
9.9994974e+00 -1.5377523e-03 0.0000000e+00 
1.0002809e+01 -2.0180966e-03 0.0000000e+00 
1.0000191e+01 -2.3121338e-03 0.0000000e+00 
9.9993687e+00 -1.5063914e-03 0.0000000e+00 
9.9999723e+00 -1.6477456e-03 0.0000000e+00 
1.0003845e+01 -1.0339758e-25 0.0000000e+00 
1.0000157e+01 -1.7281263e-03 0.0000000e+00 
1.0003495e+01 -1.5579683e-03 0.0000000e+00 
9.9991150e+00 -2.1195235e-03 0.0000000e+00 
9.9992294e+00 -1.5174013e-03 0.0000000e+00 
1.0001283e+01 -3.0797340e-03 0.0000000e+00 
1.0000869e+01 -3.0385102e-03 0.0000000e+00 
1.0002045e+01 -3.0114250e-03 0.0000000e+00 
1.0000031e+01 -2.8988144e-03 0.0000000e+00 
1.0000231e+01 -1.5084157e-03 0.0000000e+00 
1.0003952e+01 -9.5147442e-04 0.0000000e+00 
1.0002734e+01 -2.8031243e-03 0.0000000e+00 
1.0000209e+01 -2.6992273e-03 0.0000000e+00 
1.0000085e+01 -1.9043362e-03 0.0000000e+00 
9.9990768e+00 -1.5810452e-03 0.0000000e+00 
1.0000109e+01 -1.4145896e-03 0.0000000e+00 
1.0003531e+01 -2.4372502e-03 0.0000000e+00 
9.9989967e+00 -2.4460535e-03 0.0000000e+00 
9.9999828e+00 -1.3844706e-03 0.0000000e+00 
1.0000252e+01 -1.6757472e-03 0.0000000e+00 
1.0004773e+01 -1.6543612e-24 0.0000000e+00 
9.9989052e+00 -1.7031367e-03 0.0000000e+00 
1.0004365e+01 -1.8873981e-03 0.0000000e+00 
1.0001103e+01 -3.6507405e-03 0.0000000e+00 
1.0001649e+01 -3.7153726e-03 0.0000000e+00 
9.9999762e+00 -2.1577415e-03 0.0000000e+00 
1.0000111e+01 -3.4669202e-03 0.0000000e+00 
9.9998264e+00 -1.4005073e-03 0.0000000e+00 
1.0000001e+01 -1.4155583e-03 0.0000000e+00 
1.0002578e+01 -3.6423674e-03 0.0000000e+00 
1.0000217e+01 -3.2026304e-03 0.0000000e+00 
9.9998159e+00 -1.3186958e-03 0.0000000e+00 
1.0003432e+01 -3.3971961e-03 0.0000000e+00 
1.0004951e+01 -1.1548795e-03 0.0000000e+00 
9.9988604e+00 -2.8788811e-03 0.0000000e+00 
9.9996243e+00 -1.2430783e-03 0.0000000e+00 
9.9987125e+00 -1.8923080e-03 0.0000000e+00 
9.9996300e+00 -1.4655784e-03 0.0000000e+00 
1.0004407e+01 -2.9571990e-03 0.0000000e+00 
9.9998226e+00 -2.5029490e-03 0.0000000e+00 
9.9994087e+00 -1.2070384e-03 0.0000000e+00 
1.0000488e+01 -1.4321817e-03 0.0000000e+00 
1.0005900e+01 -1.6543612e-24 0.0000000e+00 
1.0001386e+01 -4.4197943e-03 0.0000000e+00 
1.0000213e+01 -4.1865502e-03 0.0000000e+00 
1.0005417e+01 -2.2933644e-03 0.0000000e+00 
9.9993801e+00 -1.5860018e-03 0.0000000e+00 
1.0002096e+01 -4.5086476e-03 0.0000000e+00 
1.0000218e+01 -3.8465750e-03 0.0000000e+00 
1.0000419e+01 -1.2543970e-03 0.0000000e+00 
9.9984951e+00 -2.1604851e-03 0.0000000e+00 
9.9991589e+00 -1.2082169e-03 0.0000000e+00 
1.0003226e+01 -4.4252947e-03 0.0000000e+00 
9.9987059e+00 -3.4401177e-03 0.0000000e+00 
1.0000320e+01 -1.1562459e-03 0.0000000e+00 
1.0004284e+01 -4.1311481e-03 0.0000000e+00 
1.0006166e+01 -1.4039915e-03 0.0000000e+00 
9.9996128e+00 -2.9588668e-03 0.0000000e+00 
1.0000237e+01 -1.0983653e-03 0.0000000e+00 
9.9990625e+00 -1.7709335e-03 0.0000000e+00 
9.9988651e+00 -1.2497059e-03 0.0000000e+00 
1.0005474e+01 -3.5973901e-03 0.0000000e+00 
9.9982491e+00 -2.5235028e-03 0.0000000e+00 
1.0000163e+01 -1.0705004e-03 0.0000000e+00 
1.0000345e+01 -5.0898818e-03 0.0000000e+00 
1.0001730e+01 -5.3785830e-03 0.0000000e+00 
1.0000210e+01 -4.6611959e-03 0.0000000e+00 
1.0000679e+01 -1.3417668e-03 0.0000000e+00 
1.0007270e+01 0.0000000e+00 0.0000000e+00 
1.0000516e+01 -1.1973494e-03 0.0000000e+00 
1.0002646e+01 -5.4922979e-03 0.0000000e+00 
9.9985342e+00 -4.1575409e-03 0.0000000e+00 
1.0006695e+01 -2.7912406e-03 0.0000000e+00 
9.9985161e+00 -1.3368521e-03 0.0000000e+00 
1.0000328e+01 -1.0720281e-03 0.0000000e+00 
1.0004020e+01 -5.3914618e-03 0.0000000e+00 
9.9986572e+00 -2.0328853e-03 0.0000000e+00 
1.0000093e+01 -1.0762912e-03 0.0000000e+00 
9.9993343e+00 -3.5496084e-03 0.0000000e+00 
1.0000127e+01 -1.0012869e-03 0.0000000e+00 
1.0005324e+01 -5.0332397e-03 0.0000000e+00 
1.0007647e+01 -1.7084086e-03 0.0000000e+00 
9.9979715e+00 -3.0019071e-03 0.0000000e+00 
9.9999113e+00 -9.5864624e-04 0.0000000e+00 
9.9980965e+00 -1.4777008e-03 0.0000000e+00 
1.0000024e+01 -1.1192405e-03 0.0000000e+00 
1.0006777e+01 -4.3815640e-03 0.0000000e+00 
1.0000520e+01 -6.2162369e-03 0.0000000e+00 
1.0000194e+01 -5.6836470e-03 0.0000000e+00 
9.9981451e+00 -2.3884727e-03 0.0000000e+00 
1.0002155e+01 -6.5670181e-03 0.0000000e+00 
9.9996786e+00 -9.4157248e-04 0.0000000e+00 
9.9983473e+00 -5.0657098e-03 0.0000000e+00 
1.0000519e+01 -1.0187356e-03 0.0000000e+00 
1.0003327e+01 -6.7057465e-03 0.0000000e+00 
1.0000876e+01 -1.0760296e-03 0.0000000e+00 
1.0008936e+01 0.0000000e+00 0.0000000e+00 
9.9989710e+00 -4.3055774e-03 0.0000000e+00 
1.0000410e+01 -9.1265474e-04 0.0000000e+00 
1.0008251e+01 -3.3992229e-03 0.0000000e+00 
9.9999523e+00 -1.2048507e-03 0.0000000e+00 
1.0004993e+01 -6.5782266e-03 0.0000000e+00 
9.9975891e+00 -1.6835917e-03 0.0000000e+00 
9.9976587e+00 -3.6219556e-03 0.0000000e+00 
9.9994135e+00 -9.5270958e-04 0.0000000e+00 
1.0000263e+01 -8.2407566e-04 0.0000000e+00 
1.0006598e+01 -6.1372132e-03 0.0000000e+00 
9.9975004e+00 -2.8593505e-03 0.0000000e+00 
1.0009450e+01 -2.0791271e-03 0.0000000e+00 
1.0000054e+01 -7.6156639e-04 0.0000000e+00 
9.9998760e+00 -1.3413135e-03 0.0000000e+00 
9.9991016e+00 -9.9587033e-04 0.0000000e+00 
1.0000173e+01 -6.9594444e-03 0.0000000e+00 
1.0000753e+01 -7.6134028e-03 0.0000000e+00 
9.9981470e+00 -6.2073045e-03 0.0000000e+00 
1.0008368e+01 -5.3381491e-03 0.0000000e+00 
1.0002684e+01 -8.0332905e-03 0.0000000e+00 
9.9999294e+00 -5.3105253e-04 0.0000000e+00 
9.9985065e+00 -5.2647758e-03 0.0000000e+00 
9.9969730e+00 -1.9699577e-03 0.0000000e+00 
9.9997807e+00 -7.1649329e-04 0.0000000e+00 
9.9990454e+00 -5.7327288e-04 0.0000000e+00 
1.0004171e+01 -8.1962803e-03 0.0000000e+00 
9.9973078e+00 -4.4168457e-03 0.0000000e+00 
1.0000142e+01 -7.3423289e-04 0.0000000e+00 
1.0010962e+01 0.0000000e+00 0.0000000e+00 
9.9983139e+00 -4.8557916e-04 0.0000000e+00 
1.0010148e+01 -4.1388213e-03 0.0000000e+00 
1.0006191e+01 -8.0301343e-03 0.0000000e+00 
9.9987240e+00 -1.0766393e-03 0.0000000e+00 
9.9966927e+00 -3.4733652e-03 0.0000000e+00 
9.9997892e+00 -1.5401858e-03 0.0000000e+00 
9.9994326e+00 -6.8616524e-04 0.0000000e+00 
9.9976444e+00 -3.7075343e-04 0.0000000e+00 
1.0008161e+01 -7.4831396e-03 0.0000000e+00 
9.9962244e+00 -2.3573497e-03 0.0000000e+00 
9.9969358e+00 -2.5327352e-04 0.0000000e+00 
1.0011647e+01 -2.5289969e-03 0.0000000e+00 
1.0000152e+01 -8.5440213e-03 0.0000000e+00 
9.9979401e+00 -7.6347040e-03 0.0000000e+00 
1.0001065e+01 -9.3391370e-03 0.0000000e+00 
9.9979210e+00 -6.4743706e-03 0.0000000e+00 
9.9982586e+00 -1.2030384e-03 0.0000000e+00 
9.9989872e+00 -6.7056925e-04 0.0000000e+00 
1.0003345e+01 -9.8352684e-03 0.0000000e+00 
1.0010311e+01 -6.5007955e-03 0.0000000e+00 
1.0001259e+01 -4.3366791e-04 0.0000000e+00 
9.9969149e+00 -5.4282015e-03 0.0000000e+00 
1.0001330e+01 -2.6962953e-04 0.0000000e+00 
9.9996862e+00 -1.8172385e-03 0.0000000e+00 
9.9961376e+00 -1.2955413e-04 0.0000000e+00 
1.0005221e+01 -1.0020347e-02 0.0000000e+00 
9.9956884e+00 -4.2659636e-03 0.0000000e+00 
1.0001303e+01 -1.3047425e-04 0.0000000e+00 
1.0000250e+01 -9.9390920e-04 0.0000000e+00 
1.0013425e+01 -4.1359031e-25 0.0000000e+00 
1.0007666e+01 -9.8000700e-03 0.0000000e+00 
1.0012458e+01 -5.0353473e-03 0.0000000e+00 
9.9984150e+00 -6.7145849e-04 0.0000000e+00 
9.9953146e+00 -2.8727215e-03 0.0000000e+00 
1.0001245e+01 1.9252802e-05 0.0000000e+00 
9.9976797e+00 -1.3862941e-03 0.0000000e+00 
9.9952154e+00 4.2991105e-06 0.0000000e+00 
1.0010076e+01 -9.1183521e-03 0.0000000e+00 
9.9977341e+00 -9.4118416e-03 0.0000000e+00 
1.0000137e+01 -1.0504549e-02 0.0000000e+00 
9.9971924e+00 -7.9925517e-03 0.0000000e+00 
9.9995584e+00 -2.1935441e-03 0.0000000e+00 
1.0001483e+01 -1.1462905e-02 0.0000000e+00 
1.0001168e+01 1.9227638e-04 0.0000000e+00 
9.9998131e+00 -4.4096046e-04 0.0000000e+00 
1.0014319e+01 -3.0730511e-03 0.0000000e+00 
9.9964781e+00 -6.7078634e-03 0.0000000e+00 
9.9993896e+00 -1.3726907e-04 0.0000000e+00 
1.0004173e+01 -1.2042111e-02 0.0000000e+00 
9.9976797e+00 -6.9255184e-04 0.0000000e+00 
9.9941349e+00 1.5192876e-04 0.0000000e+00 
9.9944477e+00 -5.2819038e-03 0.0000000e+00 
1.0012683e+01 -7.9090754e-03 0.0000000e+00 
9.9992361e+00 -4.4850989e-08 0.0000000e+00 
9.9969568e+00 -1.6417729e-03 0.0000000e+00 
1.0006529e+01 -1.2245004e-02 0.0000000e+00 
1.0001070e+01 3.9043132e-04 0.0000000e+00 
9.9942093e+00 -3.5510231e-03 0.0000000e+00 
9.9990892e+00 1.2762606e-04 0.0000000e+00 
1.0005500e+01 1.1332015e-04 0.0000000e+00 
1.0016418e+01 -4.1359031e-25 0.0000000e+00 
1.0009480e+01 -1.1950512e-02 0.0000000e+00 
1.0015269e+01 -6.1184312e-03 0.0000000e+00 
9.9928598e+00 3.1642328e-04 0.0000000e+00 
9.9993973e+00 -2.6968480e-03 0.0000000e+00 
9.9990168e+00 2.7018590e-04 0.0000000e+00 
9.9967346e+00 -7.4013654e-04 0.0000000e+00 
1.0000946e+01 6.1939732e-04 0.0000000e+00 
9.9975414e+00 -1.1616383e-02 0.0000000e+00 
9.9962978e+00 -9.8907351e-03 0.0000000e+00 
1.0000141e+01 -1.2922053e-02 0.0000000e+00 
9.9959946e+00 -8.3200214e-03 0.0000000e+00 
1.0007257e+01 -3.7845547e-04 0.0000000e+00 
1.0012422e+01 -1.1098472e-02 0.0000000e+00 
1.0002039e+01 -1.4067871e-02 0.0000000e+00 
9.9960518e+00 -1.9901483e-03 0.0000000e+00 
9.9929256e+00 -6.5773157e-03 0.0000000e+00 
9.9990511e+00 4.3174779e-04 0.0000000e+00 
1.0008967e+01 -6.9158827e-04 0.0000000e+00 
1.0017568e+01 -3.7288030e-03 0.0000000e+00 
1.0005215e+01 -1.4736087e-02 0.0000000e+00 
9.9928703e+00 -4.4371518e-03 0.0000000e+00 
9.9913473e+00 4.9986650e-04 0.0000000e+00 
1.0000787e+01 8.8565866e-04 0.0000000e+00 
1.0010671e+01 -7.7358907e-04 0.0000000e+00 
1.0015575e+01 -9.6092662e-03 0.0000000e+00 
1.0008155e+01 -1.4949529e-02 0.0000000e+00 
9.9955206e+00 -8.2394882e-04 0.0000000e+00 
9.9992104e+00 6.1660743e-04 0.0000000e+00 
9.9991884e+00 -3.3632771e-03 0.0000000e+00 
1.0012619e+01 -8.3481905e-04 0.0000000e+00 
9.9997311e+00 -9.3711220e-04 0.0000000e+00 
1.0020049e+01 -4.1359031e-25 0.0000000e+00 
1.0011715e+01 -1.4554900e-02 0.0000000e+00 
1.0018686e+01 -7.4225613e-03 0.0000000e+00 
9.9949198e+00 -2.4588616e-03 0.0000000e+00 
9.9952116e+00 -1.2256151e-02 0.0000000e+00 
1.0000582e+01 1.1956213e-03 0.0000000e+00 
9.9973803e+00 -1.4342240e-02 0.0000000e+00 
1.0014915e+01 -9.2704047e-04 0.0000000e+00 
9.9954653e+00 -1.0343752e-02 0.0000000e+00 
9.9895496e+00 7.0269452e-04 0.0000000e+00 
1.0000177e+01 -1.5893832e-02 0.0000000e+00 
9.9995184e+00 8.2963519e-04 0.0000000e+00 
9.9986954e+00 -1.1740713e-03 0.0000000e+00 
9.9910736e+00 -8.2221683e-03 0.0000000e+00 
9.9971857e+00 -1.1066888e-03 0.0000000e+00 
1.0015293e+01 -1.3488513e-02 0.0000000e+00 
1.0002778e+01 -1.7253159e-02 0.0000000e+00 
9.9912519e+00 -5.5883303e-03 0.0000000e+00 
9.9939699e+00 -9.5834734e-04 0.0000000e+00 
9.9958563e+00 -1.1816078e-03 0.0000000e+00 
1.0017638e+01 -1.0437026e-03 0.0000000e+00 
1.0006526e+01 -1.8014614e-02 0.0000000e+00 
1.0021508e+01 -4.5165406e-03 0.0000000e+00 
9.9989147e+00 -4.2394456e-03 0.0000000e+00 
9.9947586e+00 -1.4008748e-03 0.0000000e+00 
1.0000316e+01 1.5550182e-03 0.0000000e+00 
1.0000006e+01 1.0758325e-03 0.0000000e+00 
1.0019098e+01 -1.1655173e-02 0.0000000e+00 
1.0010178e+01 -1.8227184e-02 0.0000000e+00 
9.9874077e+00 9.2280458e-04 0.0000000e+00 
9.9935074e+00 -3.0839413e-03 0.0000000e+00 
1.0020869e+01 -1.1839402e-03 0.0000000e+00 
9.9936991e+00 -1.6669877e-03 0.0000000e+00 
9.9983006e+00 5.3167660e-06 0.0000000e+00 
1.0024446e+01 -4.1359031e-25 0.0000000e+00 
9.9939089e+00 -1.5194871e-02 0.0000000e+00 
9.9948921e+00 -1.2876011e-02 0.0000000e+00 
1.0014462e+01 -1.7699096e-02 0.0000000e+00 
9.9972754e+00 -1.7702499e-02 0.0000000e+00 
9.9888363e+00 -1.0303210e-02 0.0000000e+00 
1.0022834e+01 -8.9876372e-03 0.0000000e+00 
9.9919977e+00 -1.1638352e-03 0.0000000e+00 
9.9925976e+00 -1.9847651e-03 0.0000000e+00 
9.9965191e+00 1.7084456e-04 0.0000000e+00 
1.0000271e+01 -1.9536229e-02 0.0000000e+00 
1.0000707e+01 1.3599332e-03 0.0000000e+00 
9.9893036e+00 -7.0769768e-03 0.0000000e+00 
9.9999733e+00 1.9681992e-03 0.0000000e+00 
1.0024691e+01 -1.3483297e-03 0.0000000e+00 
9.9952974e+00 2.1298886e-04 0.0000000e+00 
1.0003756e+01 -2.1136381e-02 0.0000000e+00 
1.0018803e+01 -1.6364027e-02 0.0000000e+00 
9.9985552e+00 -5.3850296e-03 0.0000000e+00 
9.9937277e+00 2.1530596e-04 0.0000000e+00 
9.9848566e+00 1.1543484e-03 0.0000000e+00 
9.9914198e+00 -2.3606452e-03 0.0000000e+00 
1.0008176e+01 -2.1992501e-02 0.0000000e+00 
1.0026278e+01 -5.4596108e-03 0.0000000e+00 
9.9917507e+00 -3.9122496e-03 0.0000000e+00 
9.9916687e+00 2.3923673e-04 0.0000000e+00 
1.0001665e+01 1.6859116e-03 0.0000000e+00 
1.0029191e+01 -1.5379019e-03 0.0000000e+00 
1.0023381e+01 -1.4108966e-02 0.0000000e+00 
1.0012691e+01 -2.2187123e-02 0.0000000e+00 
9.9895039e+00 -1.4690016e-03 0.0000000e+00 
9.9995327e+00 2.4371615e-03 0.0000000e+00 
9.9901476e+00 -2.8014563e-03 0.0000000e+00 
9.9890814e+00 2.7490660e-04 0.0000000e+00 
9.9942780e+00 -1.6035166e-02 0.0000000e+00 
9.9923639e+00 -1.8835338e-02 0.0000000e+00 
9.9861546e+00 -1.2927442e-02 0.0000000e+00 
9.9972610e+00 -2.1832762e-02 0.0000000e+00 
9.9995890e+00 1.1305257e-03 0.0000000e+00 
9.9869661e+00 -8.9941528e-03 0.0000000e+00 
1.0017837e+01 -2.1482920e-02 0.0000000e+00 
1.0000006e+01 8.9729449e-04 0.0000000e+00 
1.0029761e+01 -4.1359031e-25 0.0000000e+00 
9.9989576e+00 1.0937477e-03 0.0000000e+00 
1.0000451e+01 -2.3987785e-02 0.0000000e+00 
9.9818172e+00 1.3861355e-03 0.0000000e+00 
1.0027857e+01 -1.0859502e-02 0.0000000e+00 
9.9980831e+00 -6.8759015e-03 0.0000000e+00 
9.9858913e+00 3.1982557e-04 0.0000000e+00 
1.0034465e+01 -1.7538765e-03 0.0000000e+00 
9.9984274e+00 1.2213992e-03 0.0000000e+00 
1.0002925e+01 2.0563137e-03 0.0000000e+00 
9.9887695e+00 -3.3142343e-03 0.0000000e+00 
1.0005040e+01 -2.5856458e-02 0.0000000e+00 
9.9895763e+00 -5.0042402e-03 0.0000000e+00 
1.0023084e+01 -1.9812262e-02 0.0000000e+00 
9.9980326e+00 1.4376841e-03 0.0000000e+00 
9.9989710e+00 2.9602358e-03 0.0000000e+00 
1.0010250e+01 -2.6804380e-02 0.0000000e+00 
9.9819946e+00 3.7410780e-04 0.0000000e+00 
9.9863663e+00 -1.9129659e-03 0.0000000e+00 
1.0032042e+01 -6.5846834e-03 0.0000000e+00 
9.9977341e+00 1.6961615e-03 0.0000000e+00 
1.0040613e+01 -1.9976432e-03 0.0000000e+00 
9.9872799e+00 -3.9060134e-03 0.0000000e+00 
1.0015809e+01 -2.6956381e-02 0.0000000e+00 
1.0028578e+01 -1.7041976e-02 0.0000000e+00 
9.9936323e+00 -1.9965131e-02 0.0000000e+00 
9.9829645e+00 -1.6226236e-02 0.0000000e+00 
9.9781990e+00 1.5995612e-03 0.0000000e+00 
9.9905558e+00 -2.3332445e-02 0.0000000e+00 
1.0004537e+01 2.4713369e-03 0.0000000e+00 
9.9975185e+00 2.0049512e-03 0.0000000e+00 
9.9841757e+00 -1.1453688e-02 0.0000000e+00 
9.9772644e+00 4.3862135e-04 0.0000000e+00 
9.9973831e+00 -2.6894983e-02 0.0000000e+00 